
     Program PWSCF v.7.2 starts on 23Jun2025 at  0:18:18 

     This program is part of the open-source Quantum ESPRESSO suite
     for quantum simulation of materials; please cite
         "P. Giannozzi et al., J. Phys.:Condens. Matter 21 395502 (2009);
         "P. Giannozzi et al., J. Phys.:Condens. Matter 29 465901 (2017);
         "P. Giannozzi et al., J. Chem. Phys. 152 154105 (2020);
          URL http://www.quantum-espresso.org", 
     in publications or presentations arising from this work. More details at
     http://www.quantum-espresso.org/quote

     Parallel version (MPI & OpenMP), running on       6 processor cores
     Number of MPI processes:                 1
     Threads/MPI process:                     6

     MPI processes distributed on     1 nodes
     13267 MiB available memory on the printing compute node when the environment starts

     Reading input from espresso.pwi
Warning: card &CELL ignored
Warning: card / ignored
Warning: card &FCP ignored
Warning: card / ignored
Warning: card &RISM ignored
Warning: card / ignored

     Current dimensions of program PWSCF are:
     Max number of different atomic species (ntypx) = 10
     Max number of k-points (npk) =  40000
     Max angular momentum in pseudopotentials (lmaxx) =  4
     file O.upf: wavefunction(s)  2P renormalized
     Found identity + (  0.0000  0.0000  0.3333) symmetry
     This is a supercell, fractional translations are disabled
     Message from routine setup:
     using ibrav=0 with symmetry is DISCOURAGED, use correct ibrav instead

     Subspace diagonalization in iterative solution of the eigenvalue problem:
     a serial algorithm will be used


     G-vector sticks info
     --------------------
     sticks:   dense  smooth     PW     G-vecs:    dense   smooth      PW
     Sum        6481    3593   1003               308983   127981   18895

     Using Slab Decomposition



     bravais-lattice index     =            0
     lattice parameter (alat)  =      17.3560  a.u.
     unit-cell volume          =    7575.6650 (a.u.)^3
     number of atoms/cell      =          108
     number of atomic types    =            2
     number of electrons       =       864.00
     number of Kohn-Sham states=          518
     kinetic-energy cutoff     =      25.0000  Ry
     charge density cutoff     =     180.0000  Ry
     scf convergence threshold =      1.0E-06
     mixing beta               =       0.7000
     number of iterations used =            8  plain     mixing
     Exchange-correlation= SLA  PW   PBX  PBC
                           (   1   4   3   4   0   0   0)

     celldm(1)=  17.356001  celldm(2)=   0.000000  celldm(3)=   0.000000
     celldm(4)=   0.000000  celldm(5)=   0.000000  celldm(6)=   0.000000

     crystal axes: (cart. coord. in units of alat)
               a(1) = (   1.000000   0.000000   0.000000 )  
               a(2) = (   0.000000   1.500000   0.000000 )  
               a(3) = (   0.000000   0.000000   0.966008 )  

     reciprocal axes: (cart. coord. in units 2 pi/alat)
               b(1) = (  1.000000  0.000000  0.000000 )  
               b(2) = (  0.000000  0.666667  0.000000 )  
               b(3) = (  0.000000  0.000000  1.035189 )  


     PseudoPot. # 1 for Ti read from file:
     ./Ti.upf
     MD5 check sum: 8e4df49b7f0d34bbd5052bf3f5ea0213
     Pseudo is Ultrasoft, Zval = 12.0
     Generated by new atomic code, or converted to UPF format
     Using radial grid of  851 points,  6 beta functions with: 
                l(1) =   0
                l(2) =   0
                l(3) =   1
                l(4) =   1
                l(5) =   2
                l(6) =   2
     Q(r) pseudized with  8 coefficients,  rinner =    1.000   1.000   1.000
                                                       1.000   1.000

     PseudoPot. # 2 for O  read from file:
     ./O.upf
     MD5 check sum: 0234752ac141de4415c5fc33072bef88
     Pseudo is Projector augmented-wave + core cor, Zval =  6.0
     Generated using "atomic" code by A. Dal Corso  v.5.0.99 svn rev. 10869
     Shape of augmentation charge: BESSEL
     Using radial grid of 1095 points,  4 beta functions with: 
                l(1) =   0
                l(2) =   0
                l(3) =   1
                l(4) =   1
     Q(r) pseudized with 0 coefficients 


     atomic species   valence    mass     pseudopotential
        Ti            12.00    47.86700     Ti( 1.00)
        O              6.00    15.99900     O ( 1.00)

      4 Sym. Ops., with inversion, found



   Cartesian axes

     site n.     atom                  positions (alat units)
         1           Ti  tau(   1) = (   0.0000000   0.0000000   0.0000000  )
         2           Ti  tau(   2) = (   0.2500000   0.2500000   0.1610013  )
         3           O   tau(   3) = (   0.1524800   0.1524800   0.0000000  )
         4           O   tau(   4) = (   0.3475200   0.3475200   0.0000000  )
         5           O   tau(   5) = (   0.4024800   0.0975200   0.1610013  )
         6           O   tau(   6) = (   0.0975200   0.4024800   0.1610013  )
         7           Ti  tau(   7) = (   0.0000000   0.0000000   0.3220025  )
         8           Ti  tau(   8) = (   0.2500000   0.2500000   0.4830038  )
         9           O   tau(   9) = (   0.1524800   0.1524800   0.3220025  )
        10           O   tau(  10) = (   0.3475200   0.3475200   0.3220025  )
        11           O   tau(  11) = (   0.4024800   0.0975200   0.4830038  )
        12           O   tau(  12) = (   0.0975200   0.4024800   0.4830038  )
        13           Ti  tau(  13) = (   0.0000000   0.0000000   0.6440051  )
        14           Ti  tau(  14) = (   0.2500000   0.2500000   0.8050063  )
        15           O   tau(  15) = (   0.1524800   0.1524800   0.6440051  )
        16           O   tau(  16) = (   0.3475200   0.3475200   0.6440051  )
        17           O   tau(  17) = (   0.4024800   0.0975200   0.8050063  )
        18           O   tau(  18) = (   0.0975200   0.4024800   0.8050063  )
        19           Ti  tau(  19) = (   0.0000000   0.5000000   0.0000000  )
        20           Ti  tau(  20) = (   0.2500000   0.7500000   0.1610013  )
        21           O   tau(  21) = (   0.1524800   0.6524800   0.0000000  )
        22           O   tau(  22) = (   0.3475200   0.8475200   0.0000000  )
        23           O   tau(  23) = (   0.4024800   0.5975200   0.1610013  )
        24           O   tau(  24) = (   0.0975200   0.9024800   0.1610013  )
        25           Ti  tau(  25) = (   0.0000000   0.5000000   0.3220025  )
        26           Ti  tau(  26) = (   0.2500000   0.7500000   0.4830038  )
        27           O   tau(  27) = (   0.1524800   0.6524800   0.3220025  )
        28           O   tau(  28) = (   0.3475200   0.8475200   0.3220025  )
        29           O   tau(  29) = (   0.4024800   0.5975200   0.4830038  )
        30           O   tau(  30) = (   0.0975200   0.9024800   0.4830038  )
        31           Ti  tau(  31) = (   0.0000000   0.5000000   0.6440051  )
        32           Ti  tau(  32) = (   0.2500000   0.7500000   0.8050063  )
        33           O   tau(  33) = (   0.1524800   0.6524800   0.6440051  )
        34           O   tau(  34) = (   0.3475200   0.8475200   0.6440051  )
        35           O   tau(  35) = (   0.4024800   0.5975200   0.8050063  )
        36           O   tau(  36) = (   0.0975200   0.9024800   0.8050063  )
        37           Ti  tau(  37) = (   0.0000000   1.0000000   0.0000000  )
        38           Ti  tau(  38) = (   0.2500000   1.2500000   0.1610013  )
        39           O   tau(  39) = (   0.1524800   1.1524800   0.0000000  )
        40           O   tau(  40) = (   0.3475200   1.3475200   0.0000000  )
        41           O   tau(  41) = (   0.4024800   1.0975200   0.1610013  )
        42           O   tau(  42) = (   0.0975200   1.4024800   0.1610013  )
        43           Ti  tau(  43) = (   0.0000000   1.0000000   0.3220025  )
        44           Ti  tau(  44) = (   0.2500000   1.2500000   0.4830038  )
        45           O   tau(  45) = (   0.1524800   1.1524800   0.3220025  )
        46           O   tau(  46) = (   0.3475200   1.3475200   0.3220025  )
        47           O   tau(  47) = (   0.4024800   1.0975200   0.4830038  )
        48           O   tau(  48) = (   0.0975200   1.4024800   0.4830038  )
        49           Ti  tau(  49) = (   0.0000000   1.0000000   0.6440051  )
        50           Ti  tau(  50) = (   0.2500000   1.2500000   0.8050063  )
        51           O   tau(  51) = (   0.1524800   1.1524800   0.6440051  )
        52           O   tau(  52) = (   0.3475200   1.3475200   0.6440051  )
        53           O   tau(  53) = (   0.4024800   1.0975200   0.8050063  )
        54           O   tau(  54) = (   0.0975200   1.4024800   0.8050063  )
        55           Ti  tau(  55) = (   0.5000000   0.0000000   0.0000000  )
        56           Ti  tau(  56) = (   0.7500000   0.2500000   0.1610013  )
        57           O   tau(  57) = (   0.6524800   0.1524800   0.0000000  )
        58           O   tau(  58) = (   0.8475200   0.3475200   0.0000000  )
        59           O   tau(  59) = (   0.9024800   0.0975200   0.1610013  )
        60           O   tau(  60) = (   0.5975200   0.4024800   0.1610013  )
        61           Ti  tau(  61) = (   0.5000000   0.0000000   0.3220025  )
        62           Ti  tau(  62) = (   0.7500000   0.2500000   0.4830038  )
        63           O   tau(  63) = (   0.6524800   0.1524800   0.3220025  )
        64           O   tau(  64) = (   0.8475200   0.3475200   0.3220025  )
        65           O   tau(  65) = (   0.9024800   0.0975200   0.4830038  )
        66           O   tau(  66) = (   0.5975200   0.4024800   0.4830038  )
        67           Ti  tau(  67) = (   0.5000000   0.0000000   0.6440051  )
        68           Ti  tau(  68) = (   0.7500000   0.2500000   0.8050063  )
        69           O   tau(  69) = (   0.6524800   0.1524800   0.6440051  )
        70           O   tau(  70) = (   0.8475200   0.3475200   0.6440051  )
        71           O   tau(  71) = (   0.9024800   0.0975200   0.8050063  )
        72           O   tau(  72) = (   0.5975200   0.4024800   0.8050063  )
        73           Ti  tau(  73) = (   0.5000000   0.5000000   0.0000000  )
        74           Ti  tau(  74) = (   0.7500000   0.7500000   0.1610013  )
        75           O   tau(  75) = (   0.6524800   0.6524800   0.0000000  )
        76           O   tau(  76) = (   0.8475200   0.8475200   0.0000000  )
        77           O   tau(  77) = (   0.9024800   0.5975200   0.1610013  )
        78           O   tau(  78) = (   0.5975200   0.9024800   0.1610013  )
        79           Ti  tau(  79) = (   0.5000000   0.5000000   0.3220025  )
        80           Ti  tau(  80) = (   0.7500000   0.7500000   0.4830038  )
        81           O   tau(  81) = (   0.6524800   0.6524800   0.3220025  )
        82           O   tau(  82) = (   0.8475200   0.8475200   0.3220025  )
        83           O   tau(  83) = (   0.9024800   0.5975200   0.4830038  )
        84           O   tau(  84) = (   0.5975200   0.9024800   0.4830038  )
        85           Ti  tau(  85) = (   0.5000000   0.5000000   0.6440051  )
        86           Ti  tau(  86) = (   0.7500000   0.7500000   0.8050063  )
        87           O   tau(  87) = (   0.6524800   0.6524800   0.6440051  )
        88           O   tau(  88) = (   0.8475200   0.8475200   0.6440051  )
        89           O   tau(  89) = (   0.9024800   0.5975200   0.8050063  )
        90           O   tau(  90) = (   0.5975200   0.9024800   0.8050063  )
        91           Ti  tau(  91) = (   0.5000000   1.0000000   0.0000000  )
        92           Ti  tau(  92) = (   0.7500000   1.2500000   0.1610013  )
        93           O   tau(  93) = (   0.6524800   1.1524800   0.0000000  )
        94           O   tau(  94) = (   0.8475200   1.3475200   0.0000000  )
        95           O   tau(  95) = (   0.9024800   1.0975200   0.1610013  )
        96           O   tau(  96) = (   0.5975200   1.4024800   0.1610013  )
        97           Ti  tau(  97) = (   0.5000000   1.0000000   0.3220025  )
        98           Ti  tau(  98) = (   0.7500000   1.2500000   0.4830038  )
        99           O   tau(  99) = (   0.6524800   1.1524800   0.3220025  )
       100           O   tau( 100) = (   0.8475200   1.3475200   0.3220025  )
       101           O   tau( 101) = (   0.9024800   1.0975200   0.4830038  )
       102           O   tau( 102) = (   0.5975200   1.4024800   0.4830038  )
       103           Ti  tau( 103) = (   0.5000000   1.0000000   0.6440051  )
       104           Ti  tau( 104) = (   0.7500000   1.2500000   0.8050063  )
       105           O   tau( 105) = (   0.6524800   1.1524800   0.6440051  )
       106           O   tau( 106) = (   0.8475200   1.3475200   0.6440051  )
       107           O   tau( 107) = (   0.9024800   1.0975200   0.8050063  )
       108           O   tau( 108) = (   0.5975200   1.4024800   0.8050063  )

     number of k points=     8  Marzari-Vanderbilt smearing, width (Ry)=  0.0100
                       cart. coord. in units 2pi/alat
        k(    1) = (   0.0000000   0.0000000   0.0000000), wk =   0.2500000
        k(    2) = (   0.0000000   0.0000000  -0.5175943), wk =   0.2500000
        k(    3) = (   0.0000000  -0.3333333   0.0000000), wk =   0.2500000
        k(    4) = (   0.0000000  -0.3333333  -0.5175943), wk =   0.2500000
        k(    5) = (  -0.5000000   0.0000000   0.0000000), wk =   0.2500000
        k(    6) = (  -0.5000000   0.0000000  -0.5175943), wk =   0.2500000
        k(    7) = (  -0.5000000  -0.3333333   0.0000000), wk =   0.2500000
        k(    8) = (  -0.5000000  -0.3333333  -0.5175943), wk =   0.2500000

     Dense  grid:   308983 G-vectors     FFT dimensions: (  75, 120,  72)

     Smooth grid:   127981 G-vectors     FFT dimensions: (  60,  90,  54)

     Estimated max dynamical RAM per process >       2.77 GB

     Check: negative core charge=   -0.000024

     Initial potential from superposition of free atoms

     starting charge     827.9983, renormalised to     864.0000
     Starting wfcs are  648 randomized atomic wfcs
     Checking if some PAW data can be deallocated... 

     total cpu time spent up to now is       48.2 secs

     Self-consistent Calculation

     iteration #  1     ecut=    25.00 Ry     beta= 0.70
