
     Program PWSCF v.7.2 starts on 24Jun2025 at 12: 6:20 

     This program is part of the open-source Quantum ESPRESSO suite
     for quantum simulation of materials; please cite
         "P. Giannozzi et al., J. Phys.:Condens. Matter 21 395502 (2009);
         "P. Giannozzi et al., J. Phys.:Condens. Matter 29 465901 (2017);
         "P. Giannozzi et al., J. Chem. Phys. 152 154105 (2020);
          URL http://www.quantum-espresso.org", 
     in publications or presentations arising from this work. More details at
     http://www.quantum-espresso.org/quote

     Parallel version (MPI & OpenMP), running on       4 processor cores
     Number of MPI processes:                 2
     Threads/MPI process:                     2

     MPI processes distributed on     1 nodes
     13159 MiB available memory on the printing compute node when the environment starts

     Reading input from TiO2_defect_plus_O2_relax.in

     Current dimensions of program PWSCF are:
     Max number of different atomic species (ntypx) = 10
     Max number of k-points (npk) =  40000
     Max angular momentum in pseudopotentials (lmaxx) =  4
     file O.upf: wavefunction(s)  2P renormalized

     R & G space division:  proc/nbgrp/npool/nimage =       2
     Subspace diagonalization in iterative solution of the eigenvalue problem:
     a serial algorithm will be used


     Parallelization info
     --------------------
     sticks:   dense  smooth     PW     G-vecs:    dense   smooth      PW
     Min        4314    2159    594               237894    84023   12245
     Max        4315    2160    595               237897    84026   12246
     Sum        8629    4319   1189               475791   168049   24491

     Using Slab Decomposition



     bravais-lattice index     =            0
     lattice parameter (alat)  =      17.3560  a.u.
     unit-cell volume          =    7575.6650 (a.u.)^3
     number of atoms/cell      =          108
     number of atomic types    =            2
     number of electrons       =       864.00
     number of Kohn-Sham states=          518
     kinetic-energy cutoff     =      30.0000  Ry
     charge density cutoff     =     240.0000  Ry
     scf convergence threshold =      1.0E-06
     mixing beta               =       0.7000
     number of iterations used =            8  plain     mixing
     energy convergence thresh.=      1.0E-04
     force convergence thresh. =      1.0E-03
     Exchange-correlation= SLA  PW   PBX  PBC
                           (   1   4   3   4   0   0   0)
     nstep                     =           50


     celldm(1)=  17.356001  celldm(2)=   0.000000  celldm(3)=   0.000000
     celldm(4)=   0.000000  celldm(5)=   0.000000  celldm(6)=   0.000000

     crystal axes: (cart. coord. in units of alat)
               a(1) = (   1.000000   0.000000   0.000000 )  
               a(2) = (   0.000000   1.500000   0.000000 )  
               a(3) = (   0.000000   0.000000   0.966008 )  

     reciprocal axes: (cart. coord. in units 2 pi/alat)
               b(1) = (  1.000000  0.000000  0.000000 )  
               b(2) = (  0.000000  0.666667  0.000000 )  
               b(3) = (  0.000000  0.000000  1.035189 )  


     PseudoPot. # 1 for Ti read from file:
     ./Ti.upf
     MD5 check sum: 8e4df49b7f0d34bbd5052bf3f5ea0213
     Pseudo is Ultrasoft, Zval = 12.0
     Generated by new atomic code, or converted to UPF format
     Using radial grid of  851 points,  6 beta functions with: 
                l(1) =   0
                l(2) =   0
                l(3) =   1
                l(4) =   1
                l(5) =   2
                l(6) =   2
     Q(r) pseudized with  8 coefficients,  rinner =    1.000   1.000   1.000
                                                       1.000   1.000

     PseudoPot. # 2 for O  read from file:
     ./O.upf
     MD5 check sum: 0234752ac141de4415c5fc33072bef88
     Pseudo is Projector augmented-wave + core cor, Zval =  6.0
     Generated using "atomic" code by A. Dal Corso  v.5.0.99 svn rev. 10869
     Shape of augmentation charge: BESSEL
     Using radial grid of 1095 points,  4 beta functions with: 
                l(1) =   0
                l(2) =   0
                l(3) =   1
                l(4) =   1
     Q(r) pseudized with 0 coefficients 


     atomic species   valence    mass     pseudopotential
        Ti            12.00    47.86700     Ti( 1.00)
        O              6.00    15.99900     O ( 1.00)

     No symmetry found


                                    s                        frac. trans.

      isym =  1     identity                                     

 cryst.   s( 1) = (     1          0          0      )
                  (     0          1          0      )
                  (     0          0          1      )

 cart.    s( 1) = (  1.0000000  0.0000000  0.0000000 )
                  (  0.0000000  1.0000000  0.0000000 )
                  (  0.0000000  0.0000000  1.0000000 )


   Cartesian axes

     site n.     atom                  positions (alat units)
         1           Ti  tau(   1) = (   0.0000000   0.0000000   0.0000000  )
         2           Ti  tau(   2) = (   0.2500000   0.2500000   0.1610013  )
         3           O   tau(   3) = (   0.1524800   0.1524800   0.0000000  )
         4           O   tau(   4) = (   0.3475200   0.3475200   0.0000000  )
         5           O   tau(   5) = (   0.4024800   0.0975200   0.1610013  )
         6           O   tau(   6) = (   0.0975200   0.4024800   0.1610013  )
         7           Ti  tau(   7) = (   0.0000000   0.0000000   0.3220025  )
         8           Ti  tau(   8) = (   0.2500000   0.2500000   0.4830038  )
         9           O   tau(   9) = (   0.1524800   0.1524800   0.3220025  )
        10           O   tau(  10) = (   0.4024800   0.0975200   0.4830038  )
        11           O   tau(  11) = (   0.0975200   0.4024800   0.4830038  )
        12           Ti  tau(  12) = (   0.0000000   0.0000000   0.6440051  )
        13           Ti  tau(  13) = (   0.2500000   0.2500000   0.8050063  )
        14           O   tau(  14) = (   0.1524800   0.1524800   0.6440051  )
        15           O   tau(  15) = (   0.3475200   0.3475200   0.6440051  )
        16           O   tau(  16) = (   0.4024800   0.0975200   0.8050063  )
        17           O   tau(  17) = (   0.0975200   0.4024800   0.8050063  )
        18           Ti  tau(  18) = (   0.0000000   0.5000000   0.0000000  )
        19           Ti  tau(  19) = (   0.2500000   0.7500000   0.1610013  )
        20           O   tau(  20) = (   0.1524800   0.6524800   0.0000000  )
        21           O   tau(  21) = (   0.3475200   0.8475200   0.0000000  )
        22           O   tau(  22) = (   0.4024800   0.5975200   0.1610013  )
        23           O   tau(  23) = (   0.0975200   0.9024800   0.1610013  )
        24           Ti  tau(  24) = (   0.0000000   0.5000000   0.3220025  )
        25           Ti  tau(  25) = (   0.2500000   0.7500000   0.4830038  )
        26           O   tau(  26) = (   0.1524800   0.6524800   0.3220025  )
        27           O   tau(  27) = (   0.3475200   0.8475200   0.3220025  )
        28           O   tau(  28) = (   0.4024800   0.5975200   0.4830038  )
        29           O   tau(  29) = (   0.0975200   0.9024800   0.4830038  )
        30           Ti  tau(  30) = (   0.0000000   0.5000000   0.6440051  )
        31           Ti  tau(  31) = (   0.2500000   0.7500000   0.8050063  )
        32           O   tau(  32) = (   0.1524800   0.6524800   0.6440051  )
        33           O   tau(  33) = (   0.3475200   0.8475200   0.6440051  )
        34           O   tau(  34) = (   0.4024800   0.5975200   0.8050063  )
        35           O   tau(  35) = (   0.0975200   0.9024800   0.8050063  )
        36           Ti  tau(  36) = (   0.0000000   1.0000000   0.0000000  )
        37           Ti  tau(  37) = (   0.2500000   1.2500000   0.1610013  )
        38           O   tau(  38) = (   0.1524800   1.1524800   0.0000000  )
        39           O   tau(  39) = (   0.3475200   1.3475200   0.0000000  )
        40           O   tau(  40) = (   0.4024800   1.0975200   0.1610013  )
        41           O   tau(  41) = (   0.0975200   1.4024800   0.1610013  )
        42           Ti  tau(  42) = (   0.0000000   1.0000000   0.3220025  )
        43           Ti  tau(  43) = (   0.2500000   1.2500000   0.4830038  )
        44           O   tau(  44) = (   0.1524800   1.1524800   0.3220025  )
        45           O   tau(  45) = (   0.3475200   1.3475200   0.3220025  )
        46           O   tau(  46) = (   0.4024800   1.0975200   0.4830038  )
        47           O   tau(  47) = (   0.0975200   1.4024800   0.4830038  )
        48           Ti  tau(  48) = (   0.0000000   1.0000000   0.6440051  )
        49           Ti  tau(  49) = (   0.2500000   1.2500000   0.8050063  )
        50           O   tau(  50) = (   0.1524800   1.1524800   0.6440051  )
        51           O   tau(  51) = (   0.3475200   1.3475200   0.6440051  )
        52           O   tau(  52) = (   0.4024800   1.0975200   0.8050063  )
        53           O   tau(  53) = (   0.0975200   1.4024800   0.8050063  )
        54           Ti  tau(  54) = (   0.5000000   0.0000000   0.0000000  )
        55           Ti  tau(  55) = (   0.7500000   0.2500000   0.1610013  )
        56           O   tau(  56) = (   0.6524800   0.1524800   0.0000000  )
        57           O   tau(  57) = (   0.8475200   0.3475200   0.0000000  )
        58           O   tau(  58) = (   0.9024800   0.0975200   0.1610013  )
        59           O   tau(  59) = (   0.5975200   0.4024800   0.1610013  )
        60           Ti  tau(  60) = (   0.5000000   0.0000000   0.3220025  )
        61           Ti  tau(  61) = (   0.7500000   0.2500000   0.4830038  )
        62           O   tau(  62) = (   0.6524800   0.1524800   0.3220025  )
        63           O   tau(  63) = (   0.8475200   0.3475200   0.3220025  )
        64           O   tau(  64) = (   0.9024800   0.0975200   0.4830038  )
        65           O   tau(  65) = (   0.5975200   0.4024800   0.4830038  )
        66           Ti  tau(  66) = (   0.5000000   0.0000000   0.6440051  )
        67           Ti  tau(  67) = (   0.7500000   0.2500000   0.8050063  )
        68           O   tau(  68) = (   0.6524800   0.1524800   0.6440051  )
        69           O   tau(  69) = (   0.8475200   0.3475200   0.6440051  )
        70           O   tau(  70) = (   0.9024800   0.0975200   0.8050063  )
        71           O   tau(  71) = (   0.5975200   0.4024800   0.8050063  )
        72           Ti  tau(  72) = (   0.5000000   0.5000000   0.0000000  )
        73           Ti  tau(  73) = (   0.7500000   0.7500000   0.1610013  )
        74           O   tau(  74) = (   0.6524800   0.6524800   0.0000000  )
        75           O   tau(  75) = (   0.8475200   0.8475200   0.0000000  )
        76           O   tau(  76) = (   0.9024800   0.5975200   0.1610013  )
        77           O   tau(  77) = (   0.5975200   0.9024800   0.1610013  )
        78           Ti  tau(  78) = (   0.5000000   0.5000000   0.3220025  )
        79           Ti  tau(  79) = (   0.7500000   0.7500000   0.4830038  )
        80           O   tau(  80) = (   0.6524800   0.6524800   0.3220025  )
        81           O   tau(  81) = (   0.8475200   0.8475200   0.3220025  )
        82           O   tau(  82) = (   0.9024800   0.5975200   0.4830038  )
        83           O   tau(  83) = (   0.5975200   0.9024800   0.4830038  )
        84           Ti  tau(  84) = (   0.5000000   0.5000000   0.6440051  )
        85           Ti  tau(  85) = (   0.7500000   0.7500000   0.8050063  )
        86           O   tau(  86) = (   0.6524800   0.6524800   0.6440051  )
        87           O   tau(  87) = (   0.8475200   0.8475200   0.6440051  )
        88           O   tau(  88) = (   0.9024800   0.5975200   0.8050063  )
        89           O   tau(  89) = (   0.5975200   0.9024800   0.8050063  )
        90           Ti  tau(  90) = (   0.5000000   1.0000000   0.0000000  )
        91           Ti  tau(  91) = (   0.7500000   1.2500000   0.1610013  )
        92           O   tau(  92) = (   0.6524800   1.1524800   0.0000000  )
        93           O   tau(  93) = (   0.8475200   1.3475200   0.0000000  )
        94           O   tau(  94) = (   0.9024800   1.0975200   0.1610013  )
        95           O   tau(  95) = (   0.5975200   1.4024800   0.1610013  )
        96           Ti  tau(  96) = (   0.5000000   1.0000000   0.3220025  )
        97           Ti  tau(  97) = (   0.7500000   1.2500000   0.4830038  )
        98           O   tau(  98) = (   0.6524800   1.1524800   0.3220025  )
        99           O   tau(  99) = (   0.8475200   1.3475200   0.3220025  )
       100           O   tau( 100) = (   0.9024800   1.0975200   0.4830038  )
       101           O   tau( 101) = (   0.5975200   1.4024800   0.4830038  )
       102           Ti  tau( 102) = (   0.5000000   1.0000000   0.6440051  )
       103           Ti  tau( 103) = (   0.7500000   1.2500000   0.8050063  )
       104           O   tau( 104) = (   0.8475200   1.3475200   0.6440051  )
       105           O   tau( 105) = (   0.9024800   1.0975200   0.8050063  )
       106           O   tau( 106) = (   0.5975200   1.4024800   0.8050063  )
       107           O   tau( 107) = (   0.4575471   0.7075471   1.0227669  )
       108           O   tau( 108) = (   0.4575471   0.7075471   1.1545120  )

   Crystallographic axes

     site n.     atom                  positions (cryst. coord.)
         1           Ti  tau(   1) = (  0.0000000  0.0000000  0.0000000  )
         2           Ti  tau(   2) = (  0.2500000  0.1666667  0.1666667  )
         3           O   tau(   3) = (  0.1524800  0.1016533  0.0000000  )
         4           O   tau(   4) = (  0.3475200  0.2316800  0.0000000  )
         5           O   tau(   5) = (  0.4024800  0.0650134  0.1666667  )
         6           O   tau(   6) = (  0.0975200  0.2683200  0.1666667  )
         7           Ti  tau(   7) = (  0.0000000  0.0000000  0.3333333  )
         8           Ti  tau(   8) = (  0.2500000  0.1666667  0.5000000  )
         9           O   tau(   9) = (  0.1524800  0.1016533  0.3333333  )
        10           O   tau(  10) = (  0.4024800  0.0650134  0.5000000  )
        11           O   tau(  11) = (  0.0975200  0.2683200  0.5000000  )
        12           Ti  tau(  12) = (  0.0000000  0.0000000  0.6666667  )
        13           Ti  tau(  13) = (  0.2500000  0.1666667  0.8333333  )
        14           O   tau(  14) = (  0.1524800  0.1016533  0.6666667  )
        15           O   tau(  15) = (  0.3475200  0.2316800  0.6666667  )
        16           O   tau(  16) = (  0.4024800  0.0650134  0.8333333  )
        17           O   tau(  17) = (  0.0975200  0.2683200  0.8333333  )
        18           Ti  tau(  18) = (  0.0000000  0.3333333  0.0000000  )
        19           Ti  tau(  19) = (  0.2500000  0.5000000  0.1666667  )
        20           O   tau(  20) = (  0.1524800  0.4349866  0.0000000  )
        21           O   tau(  21) = (  0.3475200  0.5650134  0.0000000  )
        22           O   tau(  22) = (  0.4024800  0.3983467  0.1666667  )
        23           O   tau(  23) = (  0.0975200  0.6016533  0.1666667  )
        24           Ti  tau(  24) = (  0.0000000  0.3333333  0.3333333  )
        25           Ti  tau(  25) = (  0.2500000  0.5000000  0.5000000  )
        26           O   tau(  26) = (  0.1524800  0.4349866  0.3333333  )
        27           O   tau(  27) = (  0.3475200  0.5650134  0.3333333  )
        28           O   tau(  28) = (  0.4024800  0.3983467  0.5000000  )
        29           O   tau(  29) = (  0.0975200  0.6016533  0.5000000  )
        30           Ti  tau(  30) = (  0.0000000  0.3333333  0.6666667  )
        31           Ti  tau(  31) = (  0.2500000  0.5000000  0.8333333  )
        32           O   tau(  32) = (  0.1524800  0.4349866  0.6666667  )
        33           O   tau(  33) = (  0.3475200  0.5650134  0.6666667  )
        34           O   tau(  34) = (  0.4024800  0.3983467  0.8333333  )
        35           O   tau(  35) = (  0.0975200  0.6016533  0.8333333  )
        36           Ti  tau(  36) = (  0.0000000  0.6666667  0.0000000  )
        37           Ti  tau(  37) = (  0.2500000  0.8333333  0.1666667  )
        38           O   tau(  38) = (  0.1524800  0.7683200  0.0000000  )
        39           O   tau(  39) = (  0.3475200  0.8983467  0.0000000  )
        40           O   tau(  40) = (  0.4024800  0.7316800  0.1666667  )
        41           O   tau(  41) = (  0.0975200  0.9349866  0.1666667  )
        42           Ti  tau(  42) = (  0.0000000  0.6666667  0.3333333  )
        43           Ti  tau(  43) = (  0.2500000  0.8333333  0.5000000  )
        44           O   tau(  44) = (  0.1524800  0.7683200  0.3333333  )
        45           O   tau(  45) = (  0.3475200  0.8983467  0.3333333  )
        46           O   tau(  46) = (  0.4024800  0.7316800  0.5000000  )
        47           O   tau(  47) = (  0.0975200  0.9349866  0.5000000  )
        48           Ti  tau(  48) = (  0.0000000  0.6666667  0.6666667  )
        49           Ti  tau(  49) = (  0.2500000  0.8333333  0.8333333  )
        50           O   tau(  50) = (  0.1524800  0.7683200  0.6666667  )
        51           O   tau(  51) = (  0.3475200  0.8983467  0.6666667  )
        52           O   tau(  52) = (  0.4024800  0.7316800  0.8333333  )
        53           O   tau(  53) = (  0.0975200  0.9349866  0.8333333  )
        54           Ti  tau(  54) = (  0.5000000  0.0000000  0.0000000  )
        55           Ti  tau(  55) = (  0.7500000  0.1666667  0.1666667  )
        56           O   tau(  56) = (  0.6524800  0.1016533  0.0000000  )
        57           O   tau(  57) = (  0.8475200  0.2316800  0.0000000  )
        58           O   tau(  58) = (  0.9024800  0.0650134  0.1666667  )
        59           O   tau(  59) = (  0.5975200  0.2683200  0.1666667  )
        60           Ti  tau(  60) = (  0.5000000  0.0000000  0.3333333  )
        61           Ti  tau(  61) = (  0.7500000  0.1666667  0.5000000  )
        62           O   tau(  62) = (  0.6524800  0.1016533  0.3333333  )
        63           O   tau(  63) = (  0.8475200  0.2316800  0.3333333  )
        64           O   tau(  64) = (  0.9024800  0.0650134  0.5000000  )
        65           O   tau(  65) = (  0.5975200  0.2683200  0.5000000  )
        66           Ti  tau(  66) = (  0.5000000  0.0000000  0.6666667  )
        67           Ti  tau(  67) = (  0.7500000  0.1666667  0.8333333  )
        68           O   tau(  68) = (  0.6524800  0.1016533  0.6666667  )
        69           O   tau(  69) = (  0.8475200  0.2316800  0.6666667  )
        70           O   tau(  70) = (  0.9024800  0.0650134  0.8333333  )
        71           O   tau(  71) = (  0.5975200  0.2683200  0.8333333  )
        72           Ti  tau(  72) = (  0.5000000  0.3333333  0.0000000  )
        73           Ti  tau(  73) = (  0.7500000  0.5000000  0.1666667  )
        74           O   tau(  74) = (  0.6524800  0.4349866  0.0000000  )
        75           O   tau(  75) = (  0.8475200  0.5650134  0.0000000  )
        76           O   tau(  76) = (  0.9024800  0.3983467  0.1666667  )
        77           O   tau(  77) = (  0.5975200  0.6016533  0.1666667  )
        78           Ti  tau(  78) = (  0.5000000  0.3333333  0.3333333  )
        79           Ti  tau(  79) = (  0.7500000  0.5000000  0.5000000  )
        80           O   tau(  80) = (  0.6524800  0.4349866  0.3333333  )
        81           O   tau(  81) = (  0.8475200  0.5650134  0.3333333  )
        82           O   tau(  82) = (  0.9024800  0.3983467  0.5000000  )
        83           O   tau(  83) = (  0.5975200  0.6016533  0.5000000  )
        84           Ti  tau(  84) = (  0.5000000  0.3333333  0.6666667  )
        85           Ti  tau(  85) = (  0.7500000  0.5000000  0.8333333  )
        86           O   tau(  86) = (  0.6524800  0.4349866  0.6666667  )
        87           O   tau(  87) = (  0.8475200  0.5650134  0.6666667  )
        88           O   tau(  88) = (  0.9024800  0.3983467  0.8333333  )
        89           O   tau(  89) = (  0.5975200  0.6016533  0.8333333  )
        90           Ti  tau(  90) = (  0.5000000  0.6666667  0.0000000  )
        91           Ti  tau(  91) = (  0.7500000  0.8333333  0.1666667  )
        92           O   tau(  92) = (  0.6524800  0.7683200  0.0000000  )
        93           O   tau(  93) = (  0.8475200  0.8983467  0.0000000  )
        94           O   tau(  94) = (  0.9024800  0.7316800  0.1666667  )
        95           O   tau(  95) = (  0.5975200  0.9349866  0.1666667  )
        96           Ti  tau(  96) = (  0.5000000  0.6666667  0.3333333  )
        97           Ti  tau(  97) = (  0.7500000  0.8333333  0.5000000  )
        98           O   tau(  98) = (  0.6524800  0.7683200  0.3333333  )
        99           O   tau(  99) = (  0.8475200  0.8983467  0.3333333  )
       100           O   tau( 100) = (  0.9024800  0.7316800  0.5000000  )
       101           O   tau( 101) = (  0.5975200  0.9349866  0.5000000  )
       102           Ti  tau( 102) = (  0.5000000  0.6666667  0.6666667  )
       103           Ti  tau( 103) = (  0.7500000  0.8333333  0.8333333  )
       104           O   tau( 104) = (  0.8475200  0.8983467  0.6666667  )
       105           O   tau( 105) = (  0.9024800  0.7316800  0.8333333  )
       106           O   tau( 106) = (  0.5975200  0.9349866  0.8333333  )
       107           O   tau( 107) = (  0.4575471  0.4716981  1.0587566  )
       108           O   tau( 108) = (  0.4575471  0.4716981  1.1951376  )

     number of k points=     8  Marzari-Vanderbilt smearing, width (Ry)=  0.0100
                       cart. coord. in units 2pi/alat
        k(    1) = (   0.0000000   0.0000000   0.0000000), wk =   0.2500000
        k(    2) = (   0.0000000   0.0000000  -0.5175943), wk =   0.2500000
        k(    3) = (   0.0000000  -0.3333333   0.0000000), wk =   0.2500000
        k(    4) = (   0.0000000  -0.3333333  -0.5175943), wk =   0.2500000
        k(    5) = (  -0.5000000   0.0000000   0.0000000), wk =   0.2500000
        k(    6) = (  -0.5000000   0.0000000  -0.5175943), wk =   0.2500000
        k(    7) = (  -0.5000000  -0.3333333   0.0000000), wk =   0.2500000
        k(    8) = (  -0.5000000  -0.3333333  -0.5175943), wk =   0.2500000

                       cryst. coord.
        k(    1) = (   0.0000000   0.0000000   0.0000000), wk =   0.2500000
        k(    2) = (   0.0000000   0.0000000  -0.5000000), wk =   0.2500000
        k(    3) = (   0.0000000  -0.5000000   0.0000000), wk =   0.2500000
        k(    4) = (   0.0000000  -0.5000000  -0.5000000), wk =   0.2500000
        k(    5) = (  -0.5000000   0.0000000   0.0000000), wk =   0.2500000
        k(    6) = (  -0.5000000   0.0000000  -0.5000000), wk =   0.2500000
        k(    7) = (  -0.5000000  -0.5000000   0.0000000), wk =   0.2500000
        k(    8) = (  -0.5000000  -0.5000000  -0.5000000), wk =   0.2500000

     Dense  grid:   475791 G-vectors     FFT dimensions: (  90, 135,  90)

     Smooth grid:   168049 G-vectors     FFT dimensions: (  64,  96,  60)

     Dynamical RAM for                 wfc:      83.07 MB

     Dynamical RAM for     wfc (w. buffer):     747.64 MB

     Dynamical RAM for           str. fact:       7.26 MB

     Dynamical RAM for           local pot:       0.00 MB

     Dynamical RAM for          nlocal pot:     196.29 MB

     Dynamical RAM for                qrad:       2.49 MB

     Dynamical RAM for          rho,v,vnew:      23.40 MB

     Dynamical RAM for               rhoin:       7.80 MB

     Dynamical RAM for            rho*nmix:      58.08 MB

     Dynamical RAM for           G-vectors:      14.25 MB

     Dynamical RAM for          h,s,v(r/c):      49.13 MB

     Dynamical RAM for          <psi|beta>:       9.67 MB

     Dynamical RAM for                 psi:     166.14 MB

     Dynamical RAM for                hpsi:     166.14 MB

     Dynamical RAM for                spsi:     166.14 MB

     Dynamical RAM for      wfcinit/wfcrot:     217.46 MB

     Dynamical RAM for           addusdens:     936.55 MB

     Dynamical RAM for          addusforce:    1454.10 MB

     Estimated static dynamical RAM per process >       1.01 GB

     Estimated max dynamical RAM per process >       2.48 GB

     Estimated total dynamical RAM >       4.97 GB

     Check: negative core charge=   -0.000018

     Initial potential from superposition of free atoms

     starting charge     827.9983, renormalised to     864.0000
     Starting wfcs are  648 randomized atomic wfcs
     Checking if some PAW data can be deallocated... 

     total cpu time spent up to now is       38.0 secs

     Self-consistent Calculation

     iteration #  1     ecut=    30.00 Ry     beta= 0.70
     Davidson diagonalization with overlap

---- Real-time Memory Report at c_bands before calling an iterative solver
          1226 MiB given to the printing process from OS
             0 MiB allocation reported by mallinfo(arena+hblkhd)
         11056 MiB available memory on the node where the printing process lives
------------------
     ethr =  1.00E-02,  avg # of iterations =  3.0

     total cpu time spent up to now is      142.2 secs

     total energy              =   -7184.62159222 Ry
     estimated scf accuracy    <      32.33663368 Ry

     iteration #  2     ecut=    30.00 Ry     beta= 0.70
     Davidson diagonalization with overlap

---- Real-time Memory Report at c_bands before calling an iterative solver
          1895 MiB given to the printing process from OS
             0 MiB allocation reported by mallinfo(arena+hblkhd)
         10933 MiB available memory on the node where the printing process lives
------------------
     ethr =  3.74E-03,  avg # of iterations =  9.1

     total cpu time spent up to now is      408.3 secs

     total energy              =   -7034.68733005 Ry
     estimated scf accuracy    <    3725.23744627 Ry

     iteration #  3     ecut=    30.00 Ry     beta= 0.70
     Davidson diagonalization with overlap

---- Real-time Memory Report at c_bands before calling an iterative solver
          1906 MiB given to the printing process from OS
             0 MiB allocation reported by mallinfo(arena+hblkhd)
         10927 MiB available memory on the node where the printing process lives
------------------
     ethr =  3.74E-03,  avg # of iterations =  8.1

     total cpu time spent up to now is      634.5 secs

     total energy              =   -7125.40014737 Ry
     estimated scf accuracy    <    2837.11594888 Ry

     iteration #  4     ecut=    30.00 Ry     beta= 0.70
     Davidson diagonalization with overlap

---- Real-time Memory Report at c_bands before calling an iterative solver
          1909 MiB given to the printing process from OS
             0 MiB allocation reported by mallinfo(arena+hblkhd)
         10654 MiB available memory on the node where the printing process lives
------------------
     ethr =  3.74E-03,  avg # of iterations =  7.9

     total cpu time spent up to now is      830.3 secs

     total energy              =   -7195.97694967 Ry
     estimated scf accuracy    <     182.45977972 Ry

     iteration #  5     ecut=    30.00 Ry     beta= 0.70
     Davidson diagonalization with overlap

---- Real-time Memory Report at c_bands before calling an iterative solver
          1912 MiB given to the printing process from OS
             0 MiB allocation reported by mallinfo(arena+hblkhd)
         10647 MiB available memory on the node where the printing process lives
------------------
     ethr =  3.74E-03,  avg # of iterations =  4.2

     total cpu time spent up to now is      924.5 secs

     total energy              =   -7205.10133924 Ry
     estimated scf accuracy    <      27.00975544 Ry

     iteration #  6     ecut=    30.00 Ry     beta= 0.70
     Davidson diagonalization with overlap

---- Real-time Memory Report at c_bands before calling an iterative solver
          1915 MiB given to the printing process from OS
             0 MiB allocation reported by mallinfo(arena+hblkhd)
         10642 MiB available memory on the node where the printing process lives
------------------
     ethr =  3.13E-03,  avg # of iterations =  2.4

     total cpu time spent up to now is     1011.5 secs

     total energy              =   -7206.50760300 Ry
     estimated scf accuracy    <      11.70245902 Ry

     iteration #  7     ecut=    30.00 Ry     beta= 0.70
     Davidson diagonalization with overlap

---- Real-time Memory Report at c_bands before calling an iterative solver
          1918 MiB given to the printing process from OS
             0 MiB allocation reported by mallinfo(arena+hblkhd)
         10636 MiB available memory on the node where the printing process lives
------------------
     ethr =  1.35E-03,  avg # of iterations = 10.1

     total cpu time spent up to now is     1127.9 secs

     total energy              =   -7206.51844639 Ry
     estimated scf accuracy    <       8.48477486 Ry

     iteration #  8     ecut=    30.00 Ry     beta= 0.70
     Davidson diagonalization with overlap

---- Real-time Memory Report at c_bands before calling an iterative solver
          1920 MiB given to the printing process from OS
             0 MiB allocation reported by mallinfo(arena+hblkhd)
         10630 MiB available memory on the node where the printing process lives
------------------
     ethr =  9.82E-04,  avg # of iterations =  6.6

     total cpu time spent up to now is     1226.9 secs

     total energy              =   -7206.50671952 Ry
     estimated scf accuracy    <       5.97341140 Ry

     iteration #  9     ecut=    30.00 Ry     beta= 0.70
     Davidson diagonalization with overlap

---- Real-time Memory Report at c_bands before calling an iterative solver
          1923 MiB given to the printing process from OS
             0 MiB allocation reported by mallinfo(arena+hblkhd)
         10625 MiB available memory on the node where the printing process lives
------------------
     ethr =  6.91E-04,  avg # of iterations =  8.2

     total cpu time spent up to now is     1333.1 secs

     total energy              =   -7205.78824679 Ry
     estimated scf accuracy    <      14.46021788 Ry

     iteration # 10     ecut=    30.00 Ry     beta= 0.70
     Davidson diagonalization with overlap

---- Real-time Memory Report at c_bands before calling an iterative solver
          1926 MiB given to the printing process from OS
             0 MiB allocation reported by mallinfo(arena+hblkhd)
         10619 MiB available memory on the node where the printing process lives
------------------
     ethr =  6.91E-04,  avg # of iterations =  7.5

     total cpu time spent up to now is     1433.5 secs

     total energy              =   -7206.31224662 Ry
     estimated scf accuracy    <       5.93844015 Ry

     iteration # 11     ecut=    30.00 Ry     beta= 0.70
     Davidson diagonalization with overlap

---- Real-time Memory Report at c_bands before calling an iterative solver
          1929 MiB given to the printing process from OS
             0 MiB allocation reported by mallinfo(arena+hblkhd)
         10619 MiB available memory on the node where the printing process lives
------------------
     ethr =  6.87E-04,  avg # of iterations =  1.9

     total cpu time spent up to now is     1516.8 secs

     total energy              =   -7205.26280497 Ry
     estimated scf accuracy    <       3.94531885 Ry

     iteration # 12     ecut=    30.00 Ry     beta= 0.70
     Davidson diagonalization with overlap

---- Real-time Memory Report at c_bands before calling an iterative solver
          1929 MiB given to the printing process from OS
             0 MiB allocation reported by mallinfo(arena+hblkhd)
         10619 MiB available memory on the node where the printing process lives
------------------
     ethr =  4.57E-04,  avg # of iterations =  8.2

     total cpu time spent up to now is     1668.4 secs

     total energy              =   -7204.62460617 Ry
     estimated scf accuracy    <      23.92157646 Ry

     iteration # 13     ecut=    30.00 Ry     beta= 0.70
     Davidson diagonalization with overlap

---- Real-time Memory Report at c_bands before calling an iterative solver
          1929 MiB given to the printing process from OS
             0 MiB allocation reported by mallinfo(arena+hblkhd)
         10619 MiB available memory on the node where the printing process lives
------------------
     c_bands:  1 eigenvalues not converged
     ethr =  4.57E-04,  avg # of iterations = 16.0

     total cpu time spent up to now is     1793.0 secs

     total energy              =   -7205.83519671 Ry
     estimated scf accuracy    <       4.86191125 Ry

     iteration # 14     ecut=    30.00 Ry     beta= 0.70
     Davidson diagonalization with overlap

---- Real-time Memory Report at c_bands before calling an iterative solver
          1929 MiB given to the printing process from OS
             0 MiB allocation reported by mallinfo(arena+hblkhd)
         10620 MiB available memory on the node where the printing process lives
------------------
     ethr =  4.57E-04,  avg # of iterations =  5.8

     total cpu time spent up to now is     1891.9 secs

     total energy              =   -7205.98850612 Ry
     estimated scf accuracy    <       0.98682653 Ry

     iteration # 15     ecut=    30.00 Ry     beta= 0.70
     Davidson diagonalization with overlap

---- Real-time Memory Report at c_bands before calling an iterative solver
          1929 MiB given to the printing process from OS
             0 MiB allocation reported by mallinfo(arena+hblkhd)
         10619 MiB available memory on the node where the printing process lives
------------------
     ethr =  1.14E-04,  avg # of iterations = 11.9

     total cpu time spent up to now is     2060.8 secs

     total energy              =   -7205.89729662 Ry
     estimated scf accuracy    <       4.27958971 Ry

     iteration # 16     ecut=    30.00 Ry     beta= 0.70
     Davidson diagonalization with overlap

---- Real-time Memory Report at c_bands before calling an iterative solver
          1929 MiB given to the printing process from OS
             0 MiB allocation reported by mallinfo(arena+hblkhd)
         10619 MiB available memory on the node where the printing process lives
------------------
     c_bands:  1 eigenvalues not converged
     c_bands:  1 eigenvalues not converged
     ethr =  1.14E-04,  avg # of iterations = 15.1

     total cpu time spent up to now is     2185.6 secs

     total energy              =   -7206.13443258 Ry
     estimated scf accuracy    <       0.50660295 Ry

     iteration # 17     ecut=    30.00 Ry     beta= 0.70
     Davidson diagonalization with overlap

---- Real-time Memory Report at c_bands before calling an iterative solver
          1929 MiB given to the printing process from OS
             0 MiB allocation reported by mallinfo(arena+hblkhd)
         10619 MiB available memory on the node where the printing process lives
------------------
     ethr =  5.86E-05,  avg # of iterations = 15.0

     total cpu time spent up to now is     2327.3 secs

     total energy              =   -7206.15420336 Ry
     estimated scf accuracy    <       0.18083399 Ry

     iteration # 18     ecut=    30.00 Ry     beta= 0.70
     Davidson diagonalization with overlap

---- Real-time Memory Report at c_bands before calling an iterative solver
          1929 MiB given to the printing process from OS
             0 MiB allocation reported by mallinfo(arena+hblkhd)
         10620 MiB available memory on the node where the printing process lives
------------------
     c_bands:  1 eigenvalues not converged
     c_bands:  1 eigenvalues not converged
     c_bands:  3 eigenvalues not converged
     ethr =  2.09E-05,  avg # of iterations = 15.1

     total cpu time spent up to now is     2484.1 secs

     total energy              =   -7206.11536346 Ry
     estimated scf accuracy    <       0.24114105 Ry

     iteration # 19     ecut=    30.00 Ry     beta= 0.70
     Davidson diagonalization with overlap

---- Real-time Memory Report at c_bands before calling an iterative solver
          1929 MiB given to the printing process from OS
             0 MiB allocation reported by mallinfo(arena+hblkhd)
         10620 MiB available memory on the node where the printing process lives
------------------
     c_bands:  2 eigenvalues not converged
     c_bands:  4 eigenvalues not converged
     c_bands:  1 eigenvalues not converged
     c_bands:  5 eigenvalues not converged
     c_bands:  1 eigenvalues not converged
     c_bands:  3 eigenvalues not converged
     c_bands:  1 eigenvalues not converged
     ethr =  2.09E-05,  avg # of iterations = 18.9

     total cpu time spent up to now is     2674.7 secs

     total energy              =   -7205.66067411 Ry
     estimated scf accuracy    <      13.04453097 Ry

     iteration # 20     ecut=    30.00 Ry     beta= 0.70
     Davidson diagonalization with overlap

---- Real-time Memory Report at c_bands before calling an iterative solver
          1929 MiB given to the printing process from OS
             0 MiB allocation reported by mallinfo(arena+hblkhd)
         10619 MiB available memory on the node where the printing process lives
------------------
     ethr =  2.09E-05,  avg # of iterations = 12.9

     total cpu time spent up to now is     2839.0 secs

     total energy              =   -7206.15488215 Ry
     estimated scf accuracy    <       0.08313677 Ry

     iteration # 21     ecut=    30.00 Ry     beta= 0.70
     Davidson diagonalization with overlap

---- Real-time Memory Report at c_bands before calling an iterative solver
          1929 MiB given to the printing process from OS
             0 MiB allocation reported by mallinfo(arena+hblkhd)
         10619 MiB available memory on the node where the printing process lives
------------------
     ethr =  9.62E-06,  avg # of iterations = 14.9

     total cpu time spent up to now is     3009.9 secs

     total energy              =   -7206.11536122 Ry
     estimated scf accuracy    <       0.34816965 Ry

     iteration # 22     ecut=    30.00 Ry     beta= 0.70
     Davidson diagonalization with overlap

---- Real-time Memory Report at c_bands before calling an iterative solver
          1929 MiB given to the printing process from OS
             0 MiB allocation reported by mallinfo(arena+hblkhd)
         10619 MiB available memory on the node where the printing process lives
------------------
     ethr =  9.62E-06,  avg # of iterations = 16.8

     total cpu time spent up to now is     3227.0 secs

     total energy              =   -7205.92540759 Ry
     estimated scf accuracy    <       5.66394869 Ry

     iteration # 23     ecut=    30.00 Ry     beta= 0.70
     Davidson diagonalization with overlap

---- Real-time Memory Report at c_bands before calling an iterative solver
          1929 MiB given to the printing process from OS
             0 MiB allocation reported by mallinfo(arena+hblkhd)
         10619 MiB available memory on the node where the printing process lives
------------------
     c_bands:  1 eigenvalues not converged
     ethr =  9.62E-06,  avg # of iterations = 11.2

     total cpu time spent up to now is     3382.6 secs

     total energy              =   -7206.15776684 Ry
     estimated scf accuracy    <       0.06301088 Ry

     iteration # 24     ecut=    30.00 Ry     beta= 0.70
     Davidson diagonalization with overlap

---- Real-time Memory Report at c_bands before calling an iterative solver
          1929 MiB given to the printing process from OS
             0 MiB allocation reported by mallinfo(arena+hblkhd)
         10620 MiB available memory on the node where the printing process lives
------------------
     c_bands:  2 eigenvalues not converged
     c_bands:  1 eigenvalues not converged
     c_bands:  4 eigenvalues not converged
     ethr =  7.29E-06,  avg # of iterations = 12.0

     total cpu time spent up to now is     3497.6 secs

     total energy              =   -7206.15890295 Ry
     estimated scf accuracy    <       0.05158913 Ry

     iteration # 25     ecut=    30.00 Ry     beta= 0.70
     Davidson diagonalization with overlap

---- Real-time Memory Report at c_bands before calling an iterative solver
          1929 MiB given to the printing process from OS
             0 MiB allocation reported by mallinfo(arena+hblkhd)
         10621 MiB available memory on the node where the printing process lives
------------------
     c_bands:  2 eigenvalues not converged
     c_bands:  3 eigenvalues not converged
     ethr =  5.97E-06,  avg # of iterations = 11.1

     total cpu time spent up to now is     3607.5 secs

     total energy              =   -7206.16092961 Ry
     estimated scf accuracy    <       0.05408769 Ry

     iteration # 26     ecut=    30.00 Ry     beta= 0.70
     Davidson diagonalization with overlap

---- Real-time Memory Report at c_bands before calling an iterative solver
          1929 MiB given to the printing process from OS
             0 MiB allocation reported by mallinfo(arena+hblkhd)
         10620 MiB available memory on the node where the printing process lives
------------------
     ethr =  5.97E-06,  avg # of iterations =  6.1

     total cpu time spent up to now is     3704.8 secs

     total energy              =   -7206.16226058 Ry
     estimated scf accuracy    <       0.01857192 Ry

     iteration # 27     ecut=    30.00 Ry     beta= 0.70
     Davidson diagonalization with overlap

---- Real-time Memory Report at c_bands before calling an iterative solver
          1929 MiB given to the printing process from OS
             0 MiB allocation reported by mallinfo(arena+hblkhd)
         10619 MiB available memory on the node where the printing process lives
------------------
     c_bands:  2 eigenvalues not converged
     c_bands:  1 eigenvalues not converged
     c_bands:  3 eigenvalues not converged
     c_bands:  1 eigenvalues not converged
     ethr =  2.15E-06,  avg # of iterations = 18.9

     total cpu time spent up to now is     3841.5 secs

     total energy              =   -7206.16172837 Ry
     estimated scf accuracy    <       0.01542143 Ry

     iteration # 28     ecut=    30.00 Ry     beta= 0.70
     Davidson diagonalization with overlap

---- Real-time Memory Report at c_bands before calling an iterative solver
          1929 MiB given to the printing process from OS
             0 MiB allocation reported by mallinfo(arena+hblkhd)
         10620 MiB available memory on the node where the printing process lives
------------------
     ethr =  1.78E-06,  avg # of iterations =  6.0

     total cpu time spent up to now is     3937.9 secs

     total energy              =   -7206.15827033 Ry
     estimated scf accuracy    <       0.00992816 Ry

     iteration # 29     ecut=    30.00 Ry     beta= 0.70
     Davidson diagonalization with overlap

---- Real-time Memory Report at c_bands before calling an iterative solver
          1929 MiB given to the printing process from OS
             0 MiB allocation reported by mallinfo(arena+hblkhd)
         10620 MiB available memory on the node where the printing process lives
------------------
     ethr =  1.15E-06,  avg # of iterations = 16.1

     total cpu time spent up to now is     4139.2 secs

     total energy              =   -7206.15433053 Ry
     estimated scf accuracy    <       0.09368245 Ry

     iteration # 30     ecut=    30.00 Ry     beta= 0.70
     Davidson diagonalization with overlap

---- Real-time Memory Report at c_bands before calling an iterative solver
          1929 MiB given to the printing process from OS
             0 MiB allocation reported by mallinfo(arena+hblkhd)
         10620 MiB available memory on the node where the printing process lives
------------------
     c_bands:  4 eigenvalues not converged
     c_bands:  3 eigenvalues not converged
     c_bands:  4 eigenvalues not converged
     c_bands:  1 eigenvalues not converged
     c_bands:  1 eigenvalues not converged
     c_bands:  2 eigenvalues not converged
     ethr =  1.15E-06,  avg # of iterations = 19.4

     total cpu time spent up to now is     4333.1 secs

     total energy              =   -7206.15944602 Ry
     estimated scf accuracy    <       0.01640398 Ry

     iteration # 31     ecut=    30.00 Ry     beta= 0.70
     Davidson diagonalization with overlap

---- Real-time Memory Report at c_bands before calling an iterative solver
          1929 MiB given to the printing process from OS
             0 MiB allocation reported by mallinfo(arena+hblkhd)
         10619 MiB available memory on the node where the printing process lives
------------------
     c_bands:  1 eigenvalues not converged
     c_bands:  1 eigenvalues not converged
     ethr =  1.15E-06,  avg # of iterations = 13.1

     total cpu time spent up to now is     4448.5 secs

     total energy              =   -7206.15945640 Ry
     estimated scf accuracy    <       0.00264812 Ry

     iteration # 32     ecut=    30.00 Ry     beta= 0.70
     Davidson diagonalization with overlap

---- Real-time Memory Report at c_bands before calling an iterative solver
          1929 MiB given to the printing process from OS
             0 MiB allocation reported by mallinfo(arena+hblkhd)
         10619 MiB available memory on the node where the printing process lives
------------------
     c_bands:  4 eigenvalues not converged
     c_bands:  3 eigenvalues not converged
     c_bands:  1 eigenvalues not converged
     ethr =  3.06E-07,  avg # of iterations = 17.9

     total cpu time spent up to now is     4671.3 secs

     total energy              =   -7206.15182376 Ry
     estimated scf accuracy    <       0.14646575 Ry

     iteration # 33     ecut=    30.00 Ry     beta= 0.70
     Davidson diagonalization with overlap

---- Real-time Memory Report at c_bands before calling an iterative solver
          1929 MiB given to the printing process from OS
             0 MiB allocation reported by mallinfo(arena+hblkhd)
         10619 MiB available memory on the node where the printing process lives
------------------
     c_bands:  2 eigenvalues not converged
     c_bands:  1 eigenvalues not converged
     c_bands:  3 eigenvalues not converged
     ethr =  3.06E-07,  avg # of iterations = 14.9

     total cpu time spent up to now is     4850.0 secs

     total energy              =   -7206.16104123 Ry
     estimated scf accuracy    <       0.00059716 Ry

     iteration # 34     ecut=    30.00 Ry     beta= 0.70
     Davidson diagonalization with overlap

---- Real-time Memory Report at c_bands before calling an iterative solver
          1929 MiB given to the printing process from OS
             0 MiB allocation reported by mallinfo(arena+hblkhd)
         10619 MiB available memory on the node where the printing process lives
------------------
     ethr =  6.91E-08,  avg # of iterations =  5.9

     total cpu time spent up to now is     4950.4 secs

     total energy              =   -7206.16107689 Ry
     estimated scf accuracy    <       0.00028128 Ry

     iteration # 35     ecut=    30.00 Ry     beta= 0.70
     Davidson diagonalization with overlap

---- Real-time Memory Report at c_bands before calling an iterative solver
          1929 MiB given to the printing process from OS
             0 MiB allocation reported by mallinfo(arena+hblkhd)
         10619 MiB available memory on the node where the printing process lives
------------------
     ethr =  3.26E-08,  avg # of iterations =  6.0

     total cpu time spent up to now is     5049.0 secs

     total energy              =   -7206.16108313 Ry
     estimated scf accuracy    <       0.00016892 Ry

     iteration # 36     ecut=    30.00 Ry     beta= 0.70
     Davidson diagonalization with overlap

---- Real-time Memory Report at c_bands before calling an iterative solver
          1929 MiB given to the printing process from OS
             0 MiB allocation reported by mallinfo(arena+hblkhd)
         10619 MiB available memory on the node where the printing process lives
------------------
     ethr =  1.96E-08,  avg # of iterations =  7.0

     total cpu time spent up to now is     5158.8 secs

     total energy              =   -7206.16107930 Ry
     estimated scf accuracy    <       0.00046281 Ry

     iteration # 37     ecut=    30.00 Ry     beta= 0.70
     Davidson diagonalization with overlap

---- Real-time Memory Report at c_bands before calling an iterative solver
          1929 MiB given to the printing process from OS
             0 MiB allocation reported by mallinfo(arena+hblkhd)
         10619 MiB available memory on the node where the printing process lives
------------------
     ethr =  1.96E-08,  avg # of iterations =  7.0

     total cpu time spent up to now is     5258.7 secs

     total energy              =   -7206.16110696 Ry
     estimated scf accuracy    <       0.00001670 Ry

     iteration # 38     ecut=    30.00 Ry     beta= 0.70
     Davidson diagonalization with overlap

---- Real-time Memory Report at c_bands before calling an iterative solver
          1929 MiB given to the printing process from OS
             0 MiB allocation reported by mallinfo(arena+hblkhd)
         10619 MiB available memory on the node where the printing process lives
------------------
     ethr =  1.93E-09,  avg # of iterations =  6.5

     total cpu time spent up to now is     5374.2 secs

     total energy              =   -7206.16110927 Ry
     estimated scf accuracy    <       0.00001854 Ry

     iteration # 39     ecut=    30.00 Ry     beta= 0.70
     Davidson diagonalization with overlap

---- Real-time Memory Report at c_bands before calling an iterative solver
          1929 MiB given to the printing process from OS
             0 MiB allocation reported by mallinfo(arena+hblkhd)
         10620 MiB available memory on the node where the printing process lives
------------------
     ethr =  1.93E-09,  avg # of iterations =  6.0

     total cpu time spent up to now is     5473.1 secs

     total energy              =   -7206.16111005 Ry
     estimated scf accuracy    <       0.00001188 Ry

     iteration # 40     ecut=    30.00 Ry     beta= 0.70
     Davidson diagonalization with overlap

---- Real-time Memory Report at c_bands before calling an iterative solver
          1929 MiB given to the printing process from OS
             0 MiB allocation reported by mallinfo(arena+hblkhd)
         10620 MiB available memory on the node where the printing process lives
------------------
     ethr =  1.37E-09,  avg # of iterations =  6.0

     total cpu time spent up to now is     5572.6 secs

     total energy              =   -7206.16110992 Ry
     estimated scf accuracy    <       0.00001341 Ry

     iteration # 41     ecut=    30.00 Ry     beta= 0.70
     Davidson diagonalization with overlap

---- Real-time Memory Report at c_bands before calling an iterative solver
          1929 MiB given to the printing process from OS
             0 MiB allocation reported by mallinfo(arena+hblkhd)
         10619 MiB available memory on the node where the printing process lives
------------------
     ethr =  1.37E-09,  avg # of iterations =  6.0

     total cpu time spent up to now is     5670.8 secs

     total energy              =   -7206.16111031 Ry
     estimated scf accuracy    <       0.00000412 Ry

     iteration # 42     ecut=    30.00 Ry     beta= 0.70
     Davidson diagonalization with overlap

---- Real-time Memory Report at c_bands before calling an iterative solver
          1929 MiB given to the printing process from OS
             0 MiB allocation reported by mallinfo(arena+hblkhd)
         10620 MiB available memory on the node where the printing process lives
------------------
     ethr =  4.76E-10,  avg # of iterations =  8.0

     total cpu time spent up to now is     5797.9 secs

     total energy              =   -7206.16110883 Ry
     estimated scf accuracy    <       0.00003353 Ry

     iteration # 43     ecut=    30.00 Ry     beta= 0.70
     Davidson diagonalization with overlap

---- Real-time Memory Report at c_bands before calling an iterative solver
          1929 MiB given to the printing process from OS
             0 MiB allocation reported by mallinfo(arena+hblkhd)
         10619 MiB available memory on the node where the printing process lives
------------------
     ethr =  4.76E-10,  avg # of iterations =  7.0

     total cpu time spent up to now is     5905.6 secs

     End of self-consistent calculation

          k = 0.0000 0.0000 0.0000 ( 20947 PWs)   bands (ev):

   -47.7373 -47.6385 -47.6311 -47.6028 -47.5993 -47.5937 -47.5921 -47.5733
   -47.5727 -47.5718 -47.5639 -47.5626 -47.5598 -47.5504 -47.5478 -47.5439
   -47.5421 -47.5348 -47.5325 -47.5305 -47.5287 -47.5278 -47.5256 -47.5223
   -47.5098 -47.5093 -47.4893 -47.4850 -47.4754 -47.4715 -47.4625 -47.4505
   -47.4468 -47.4339 -47.3842 -47.3454 -26.4277 -24.1547 -24.1377 -24.0928
   -24.0745 -24.0527 -24.0521 -24.0506 -24.0448 -24.0410 -24.0374 -24.0316
   -24.0246 -24.0196 -24.0126 -24.0096 -23.9801 -23.9790 -23.9683 -23.9651
   -23.9646 -23.9556 -23.9500 -23.9371 -23.9189 -23.9178 -23.9085 -23.8972
   -23.8865 -23.8806 -23.8747 -23.8698 -23.8565 -23.8505 -23.8437 -23.8399
   -23.8328 -23.8271 -23.8202 -23.8110 -23.8107 -23.8064 -23.8041 -23.8009
   -23.7976 -23.7947 -23.7924 -23.7901 -23.7885 -23.7830 -23.7785 -23.7751
   -23.7722 -23.7702 -23.7671 -23.7665 -23.7630 -23.7600 -23.7586 -23.7573
   -23.7537 -23.7464 -23.7433 -23.7416 -23.7402 -23.7388 -23.7359 -23.7321
   -23.7304 -23.7272 -23.7266 -23.7196 -23.7182 -23.7163 -23.7148 -23.7122
   -23.7070 -23.7056 -23.7022 -23.7018 -23.7005 -23.6965 -23.6952 -23.6913
   -23.6893 -23.6876 -23.6870 -23.6819 -23.6797 -23.6782 -23.6768 -23.6742
   -23.6705 -23.6673 -23.6647 -23.6636 -23.6613 -23.6529 -23.6384 -23.6327
   -23.6080 -23.6022 -23.5947 -23.5891 -23.5810 -23.5452 -23.5402 -23.5278
   -23.1516 -12.8883  -9.0933  -8.8769  -8.8064  -8.7149  -8.5880  -8.4393
    -8.4111  -8.3777  -8.3555  -8.3160  -8.2035  -8.1875  -8.1395  -8.1119
    -8.0832  -8.0671  -8.0529  -8.0345  -8.0141  -7.9773  -7.9607  -7.9524
    -7.9266  -7.9209  -7.9051  -7.8872  -7.8766  -7.8656  -7.8434  -7.8294
    -7.8264  -7.7936  -7.7792  -7.7422  -7.7137  -7.6676  -7.6490  -7.6342
    -7.6235  -7.6184  -7.6115  -7.5938  -7.5819  -7.5795  -7.5729  -7.5574
    -7.5493  -7.5432  -7.5396  -7.5336  -7.5114  -7.5062  -7.4961  -7.4854
    -7.4804  -7.4646  -7.4564  -7.4539  -7.4511  -7.4444  -7.4371  -7.4169
    -7.3860  -7.3753  -7.3602  -7.3198  -7.3051  -7.2258  -7.2015  -6.7410
    -3.0399  -1.6402  -0.8433   2.0476   3.0717   3.5213   3.8216   3.8307
     3.8729   3.9258   4.0222   4.0784   4.1111   4.2655   4.2842   4.3257
     4.4065   4.4242   4.4583   4.5138   4.5397   4.5525   4.5677   4.5798
     4.5866   4.6163   4.6265   4.6656   4.6714   4.6805   4.6848   4.7198
     4.7255   4.7391   4.7494   4.7622   4.7634   4.7721   4.7790   4.7900
     4.7908   4.8059   4.8302   4.8440   4.8551   4.8625   4.8653   4.8841
     4.9093   4.9384   4.9414   4.9563   4.9631   5.0098   5.0334   5.0742
     5.1352   5.1492   5.1770   5.1935   5.2051   5.2258   5.2406   5.2725
     5.3114   5.3164   5.3517   5.3621   5.3992   5.4098   5.4150   5.4357
     5.4525   5.4713   5.4777   5.4789   5.4937   5.5060   5.5211   5.5266
     5.5439   5.5628   5.6218   5.6389   5.6475   5.6956   5.7139   5.7377
     5.7512   5.7959   5.8012   5.8300   5.8364   5.8762   5.8886   5.8944
     5.8999   5.9355   5.9577   5.9804   6.0000   6.0476   6.0657   6.0819
     6.1187   6.1414   6.1843   6.2287   6.2456   6.2742   6.2993   6.3129
     6.3502   6.3625   6.3829   6.4322   6.4509   6.4767   6.5335   6.6069
     6.6310   6.6637   6.6873   6.7262   6.7433   6.7718   6.8024   6.8136
     6.9018   6.9380   6.9753   6.9818   6.9951   7.0008   7.0232   7.0409
     7.0534   7.0651   7.0820   7.1253   7.1440   7.1581   7.1841   7.1900
     7.2112   7.2195   7.2319   7.2635   7.2739   7.2912   7.3120   7.3532
     7.3965   7.4034   7.4301   7.4360   7.4736   7.4880   7.5062   7.5300
     7.5348   7.5517   7.5625   7.5667   7.5813   7.6067   7.6100   7.6255
     7.6386   7.7054   7.7293   7.7332   7.7440   7.7839   7.8180   7.8303
     7.8515   7.8580   7.9052   7.9235   7.9424   7.9668   7.9909   8.0372
     8.0827   8.0851   8.1040   8.1387   8.1508   8.1928   8.2025   8.2153
     8.2365   8.2463   8.2693   8.2775   8.2816   8.3036   8.3459   8.3484
     8.3954   8.4251   8.4445   8.4592   8.4867   8.5089   8.5613   8.6469
     8.7004   8.7601   8.8257   9.1778   9.8433  10.4949  10.8864  10.9713
    11.1934  11.2794  11.3563  11.3907  11.3977  11.4063  11.4240  11.4612
    11.4700  11.4982  11.5202  11.5284  11.5708  11.5961  11.6323  11.6369
    11.6448  11.6866  11.7036  11.7174  11.7434  11.7753  11.8238  11.8473
    11.8507  11.8559  11.8748  11.8804  11.8856  11.9089  11.9315  11.9577
    11.9673  11.9810  11.9862  11.9930  12.0042  12.0117  12.0342  12.0425
    12.0581  12.0904  12.1182  12.1423  12.1871  12.1976  12.2418  12.2491
    12.2689  12.2774  12.2934  12.3089  12.3249  12.3437  12.3523  12.3668
    12.3705  12.3854  12.3930  12.4022  12.4146  12.4226  12.4355  12.4552
    12.4658  12.4849  12.4925  12.4983  12.5098  12.5589  12.5624  12.5740
    12.5810  12.5854  12.6069  12.6299  12.6561  12.6921  12.7138  12.7222
    12.7315  12.7355  12.7678  12.7748  12.8059  12.8450

     occupation numbers 
     1.0000   1.0000   1.0000   1.0000   1.0000   1.0000   1.0000   1.0000
     1.0000   1.0000   1.0000   1.0000   1.0000   1.0000   1.0000   1.0000
     1.0000   1.0000   1.0000   1.0000   1.0000   1.0000   1.0000   1.0000
     1.0000   1.0000   1.0000   1.0000   1.0000   1.0000   1.0000   1.0000
     1.0000   1.0000   1.0000   1.0000   1.0000   1.0000   1.0000   1.0000
     1.0000   1.0000   1.0000   1.0000   1.0000   1.0000   1.0000   1.0000
     1.0000   1.0000   1.0000   1.0000   1.0000   1.0000   1.0000   1.0000
     1.0000   1.0000   1.0000   1.0000   1.0000   1.0000   1.0000   1.0000
     1.0000   1.0000   1.0000   1.0000   1.0000   1.0000   1.0000   1.0000
     1.0000   1.0000   1.0000   1.0000   1.0000   1.0000   1.0000   1.0000
     1.0000   1.0000   1.0000   1.0000   1.0000   1.0000   1.0000   1.0000
     1.0000   1.0000   1.0000   1.0000   1.0000   1.0000   1.0000   1.0000
     1.0000   1.0000   1.0000   1.0000   1.0000   1.0000   1.0000   1.0000
     1.0000   1.0000   1.0000   1.0000   1.0000   1.0000   1.0000   1.0000
     1.0000   1.0000   1.0000   1.0000   1.0000   1.0000   1.0000   1.0000
     1.0000   1.0000   1.0000   1.0000   1.0000   1.0000   1.0000   1.0000
     1.0000   1.0000   1.0000   1.0000   1.0000   1.0000   1.0000   1.0000
     1.0000   1.0000   1.0000   1.0000   1.0000   1.0000   1.0000   1.0000
     1.0000   1.0000   1.0000   1.0000   1.0000   1.0000   1.0000   1.0000
     1.0000   1.0000   1.0000   1.0000   1.0000   1.0000   1.0000   1.0000
     1.0000   1.0000   1.0000   1.0000   1.0000   1.0000   1.0000   1.0000
     1.0000   1.0000   1.0000   1.0000   1.0000   1.0000   1.0000   1.0000
     1.0000   1.0000   1.0000   1.0000   1.0000   1.0000   1.0000   1.0000
     1.0000   1.0000   1.0000   1.0000   1.0000   1.0000   1.0000   1.0000
     1.0000   1.0000   1.0000   1.0000   1.0000   1.0000   1.0000   1.0000
     1.0000   1.0000   1.0000   1.0000   1.0000   1.0000   1.0000   1.0000
     1.0000   1.0000   1.0000   1.0000   1.0000   1.0000   1.0000   1.0000
     1.0000   1.0000   1.0000   1.0000   1.0000   1.0000   1.0000   1.0000
     1.0000   1.0000   1.0000   1.0000   1.0000   1.0000   1.0000   1.0000
     1.0000   1.0000   1.0000   1.0000   1.0000   1.0000   1.0000   1.0000
     1.0000   1.0000   1.0000   1.0000   1.0000   1.0000   1.0000   1.0000
     1.0000   1.0000   1.0000   1.0000   1.0000   1.0000   1.0000   1.0000
     1.0000   1.0000   1.0000   1.0000   1.0000   1.0000   1.0000   1.0000
     1.0000   1.0000   1.0000   1.0000   1.0000   1.0000   1.0000   1.0000
     1.0000   1.0000   1.0000   1.0000   1.0000   1.0000   1.0000   1.0000
     1.0000   1.0000   1.0000   1.0000   1.0000   1.0000   1.0000   1.0000
     1.0000   1.0000   1.0000   1.0000   1.0000   1.0000   1.0000   1.0000
     1.0000   1.0000   1.0000   1.0000   1.0000   1.0000   1.0000   1.0000
     1.0000   1.0000   1.0000   1.0000   1.0000   1.0000   1.0000   1.0000
     1.0000   1.0000   1.0000   1.0000   1.0000   1.0000   1.0000   1.0000
     1.0000   1.0000   1.0000   1.0000   1.0000   1.0000   1.0000   1.0000
     1.0000   1.0000   1.0000   1.0000   1.0000   1.0000   1.0000   1.0000
     1.0000   1.0000   1.0000   1.0000   1.0000   1.0000   1.0000   1.0000
     1.0000   1.0000   1.0000   1.0000   1.0000   1.0000   1.0000   1.0000
     1.0000   1.0000   1.0000   1.0000   1.0000   1.0000   1.0000   1.0000
     1.0000   1.0000   1.0000   1.0000   1.0000   1.0000   1.0000   1.0000
     1.0000   1.0000   1.0000   1.0000   1.0000   1.0000   1.0000   1.0000
     1.0000   1.0000   1.0000   1.0000   1.0000   1.0000   1.0000   1.0000
     1.0000   1.0000   1.0000   1.0000   1.0000   1.0000   1.0000   1.0000
     1.0000   1.0000   1.0000   1.0000   1.0000   1.0000   1.0000   1.0000
     1.0000   1.0000   1.0000   1.0000   1.0000   1.0000   1.0000   1.0000
     1.0000   1.0000   1.0000   1.0000   1.0000   1.0000   1.0000   1.0000
     1.0000   1.0000   1.0000   1.0000   1.0000   1.0000   1.0000   1.0000
     1.0000   1.0000   1.0000   1.0000   1.0000   1.0000   1.0669   1.0520
     0.1245   0.0159   0.0013   0.0004   0.0003   0.0002   0.0001   0.0000
     0.0000   0.0000   0.0000   0.0000   0.0000   0.0000   0.0000   0.0000
     0.0000   0.0000   0.0000   0.0000   0.0000   0.0000   0.0000   0.0000
     0.0000   0.0000   0.0000   0.0000   0.0000   0.0000   0.0000   0.0000
     0.0000   0.0000   0.0000   0.0000   0.0000   0.0000   0.0000   0.0000
     0.0000   0.0000   0.0000   0.0000   0.0000   0.0000   0.0000   0.0000
     0.0000   0.0000   0.0000   0.0000   0.0000   0.0000   0.0000   0.0000
     0.0000   0.0000   0.0000   0.0000   0.0000   0.0000   0.0000   0.0000
     0.0000   0.0000   0.0000   0.0000   0.0000   0.0000   0.0000   0.0000
     0.0000   0.0000   0.0000   0.0000   0.0000   0.0000   0.0000   0.0000
     0.0000   0.0000   0.0000   0.0000   0.0000   0.0000

          k = 0.0000 0.0000-0.5176 ( 21006 PWs)   bands (ev):

   -47.7372 -47.6384 -47.6303 -47.5999 -47.5947 -47.5923 -47.5879 -47.5845
   -47.5750 -47.5717 -47.5669 -47.5648 -47.5570 -47.5552 -47.5521 -47.5451
   -47.5415 -47.5315 -47.5305 -47.5283 -47.5270 -47.5256 -47.5248 -47.5192
   -47.5101 -47.5061 -47.4970 -47.4901 -47.4739 -47.4709 -47.4645 -47.4486
   -47.4453 -47.4326 -47.3841 -47.3453 -26.4285 -24.2072 -24.1907 -24.1852
   -24.1589 -24.1498 -24.1439 -24.1351 -24.1302 -24.0782 -24.0622 -24.0329
   -24.0211 -23.9932 -23.9539 -23.9053 -23.9040 -23.8894 -23.8735 -23.8719
   -23.8712 -23.8670 -23.8635 -23.8627 -23.8607 -23.8568 -23.8540 -23.8530
   -23.8471 -23.8436 -23.8347 -23.8329 -23.8318 -23.8306 -23.8252 -23.8237
   -23.8167 -23.8147 -23.8136 -23.8133 -23.8106 -23.8064 -23.8030 -23.8019
   -23.7986 -23.7969 -23.7946 -23.7945 -23.7914 -23.7833 -23.7826 -23.7807
   -23.7796 -23.7760 -23.7730 -23.7717 -23.7657 -23.7590 -23.7578 -23.7567
   -23.7534 -23.7521 -23.7496 -23.7473 -23.7457 -23.7406 -23.7402 -23.7389
   -23.7383 -23.7338 -23.7330 -23.7306 -23.7288 -23.7260 -23.7245 -23.7243
   -23.7202 -23.7185 -23.7175 -23.7153 -23.7117 -23.7063 -23.7053 -23.7024
   -23.7005 -23.6982 -23.6940 -23.6936 -23.6912 -23.6899 -23.6878 -23.6866
   -23.6835 -23.6811 -23.6765 -23.6753 -23.6740 -23.6722 -23.6615 -23.6551
   -23.6370 -23.6335 -23.6225 -23.6058 -23.5948 -23.5823 -23.5815 -23.5486
   -23.1488 -12.8899  -8.9477  -8.8589  -8.7224  -8.6459  -8.5102  -8.4713
    -8.4670  -8.3591  -8.2655  -8.2507  -8.2290  -8.2086  -8.1926  -8.1803
    -8.1777  -8.1580  -8.1434  -8.1253  -8.0975  -8.0595  -8.0319  -8.0068
    -8.0040  -7.9655  -7.9413  -7.9125  -7.8870  -7.8684  -7.8618  -7.8507
    -7.8352  -7.7999  -7.7809  -7.7444  -7.7260  -7.7095  -7.6655  -7.6589
    -7.6415  -7.6165  -7.5986  -7.5706  -7.5560  -7.5497  -7.5358  -7.5202
    -7.5144  -7.5015  -7.4899  -7.4794  -7.4764  -7.4741  -7.4661  -7.4527
    -7.4503  -7.4465  -7.4336  -7.4155  -7.4089  -7.4001  -7.3769  -7.3654
    -7.3490  -7.3455  -7.3318  -7.3273  -7.3022  -7.2972  -7.2956  -6.7170
    -3.0433  -1.6436  -0.8444   2.0397   3.0687   3.8459   3.9073   4.0702
     4.1165   4.1308   4.1487   4.1660   4.1787   4.1871   4.2041   4.2356
     4.2654   4.2830   4.3046   4.3349   4.3465   4.3606   4.3738   4.3929
     4.4181   4.4202   4.4244   4.4429   4.4662   4.4800   4.5040   4.5747
     4.6075   4.6321   4.6371   4.6615   4.6831   4.7133   4.7310   4.7538
     4.7636   4.8000   4.8150   4.8435   4.8655   4.8799   4.9011   4.9128
     4.9235   4.9321   4.9425   4.9617   4.9711   4.9854   5.0121   5.0229
     5.0611   5.0741   5.1089   5.1196   5.1496   5.1633   5.1828   5.2015
     5.2132   5.2224   5.2368   5.2452   5.2700   5.2757   5.2898   5.3052
     5.3451   5.3856   5.4115   5.5080   5.5809   5.5866   5.6327   5.6812
     5.7105   5.7171   5.7462   5.7596   5.7799   5.8043   5.8174   5.8728
     5.9116   5.9705   5.9734   5.9932   6.0245   6.0456   6.1047   6.1352
     6.1456   6.1564   6.2498   6.3120   6.3191   6.3608   6.3682   6.4089
     6.4287   6.4640   6.4986   6.5048   6.5116   6.5335   6.5555   6.5601
     6.5811   6.5862   6.5942   6.6001   6.6036   6.6194   6.6383   6.6523
     6.6638   6.6794   6.7046   6.7281   6.7483   6.7736   6.7968   6.8009
     6.8070   6.8366   6.8471   6.8779   6.8917   6.9145   6.9189   6.9311
     6.9690   6.9714   6.9829   6.9933   7.0184   7.0427   7.0681   7.0731
     7.0851   7.0934   7.1086   7.1149   7.1182   7.1523   7.1669   7.1903
     7.2240   7.2719   7.2995   7.3288   7.3555   7.3661   7.3962   7.4110
     7.4546   7.4699   7.4989   7.5048   7.5182   7.5343   7.5499   7.5852
     7.6041   7.6577   7.7046   7.7384   7.7433   7.7599   7.7776   7.8027
     7.8107   7.8384   7.8540   7.8636   7.8695   7.8856   7.8922   7.8974
     7.9124   7.9344   7.9736   8.0242   8.0451   8.0814   8.1065   8.1627
     8.1785   8.2015   8.2286   8.2384   8.2649   8.2856   8.3243   8.3804
     8.4133   8.4432   8.4639   8.5044   8.5107   8.5206   8.6635   8.6878
     8.7705   8.7754   9.0328   9.0550   9.8484  10.5145  11.0016  11.0431
    11.2444  11.3064  11.3824  11.4247  11.4531  11.4946  11.5500  11.5578
    11.5759  11.5838  11.6143  11.6221  11.6311  11.6532  11.6937  11.7080
    11.7493  11.7589  11.7731  11.7812  11.7857  11.7973  11.8002  11.8219
    11.8336  11.8609  11.8729  11.8919  11.9044  11.9191  11.9305  11.9588
    11.9666  12.0065  12.0119  12.0395  12.0598  12.0651  12.0657  12.0771
    12.0881  12.1009  12.1102  12.1148  12.1227  12.1338  12.1443  12.1557
    12.1726  12.1839  12.1920  12.1960  12.2313  12.2502  12.2706  12.2945
    12.3159  12.3407  12.3613  12.3853  12.3947  12.4030  12.4433  12.4800
    12.4877  12.5027  12.5072  12.5109  12.5234  12.5253  12.5352  12.5388
    12.5574  12.5739  12.5976  12.6045  12.6150  12.6367  12.6571  12.6867
    12.7760  12.8140  12.8253  12.8618  12.8637  12.8848

     occupation numbers 
     1.0000   1.0000   1.0000   1.0000   1.0000   1.0000   1.0000   1.0000
     1.0000   1.0000   1.0000   1.0000   1.0000   1.0000   1.0000   1.0000
     1.0000   1.0000   1.0000   1.0000   1.0000   1.0000   1.0000   1.0000
     1.0000   1.0000   1.0000   1.0000   1.0000   1.0000   1.0000   1.0000
     1.0000   1.0000   1.0000   1.0000   1.0000   1.0000   1.0000   1.0000
     1.0000   1.0000   1.0000   1.0000   1.0000   1.0000   1.0000   1.0000
     1.0000   1.0000   1.0000   1.0000   1.0000   1.0000   1.0000   1.0000
     1.0000   1.0000   1.0000   1.0000   1.0000   1.0000   1.0000   1.0000
     1.0000   1.0000   1.0000   1.0000   1.0000   1.0000   1.0000   1.0000
     1.0000   1.0000   1.0000   1.0000   1.0000   1.0000   1.0000   1.0000
     1.0000   1.0000   1.0000   1.0000   1.0000   1.0000   1.0000   1.0000
     1.0000   1.0000   1.0000   1.0000   1.0000   1.0000   1.0000   1.0000
     1.0000   1.0000   1.0000   1.0000   1.0000   1.0000   1.0000   1.0000
     1.0000   1.0000   1.0000   1.0000   1.0000   1.0000   1.0000   1.0000
     1.0000   1.0000   1.0000   1.0000   1.0000   1.0000   1.0000   1.0000
     1.0000   1.0000   1.0000   1.0000   1.0000   1.0000   1.0000   1.0000
     1.0000   1.0000   1.0000   1.0000   1.0000   1.0000   1.0000   1.0000
     1.0000   1.0000   1.0000   1.0000   1.0000   1.0000   1.0000   1.0000
     1.0000   1.0000   1.0000   1.0000   1.0000   1.0000   1.0000   1.0000
     1.0000   1.0000   1.0000   1.0000   1.0000   1.0000   1.0000   1.0000
     1.0000   1.0000   1.0000   1.0000   1.0000   1.0000   1.0000   1.0000
     1.0000   1.0000   1.0000   1.0000   1.0000   1.0000   1.0000   1.0000
     1.0000   1.0000   1.0000   1.0000   1.0000   1.0000   1.0000   1.0000
     1.0000   1.0000   1.0000   1.0000   1.0000   1.0000   1.0000   1.0000
     1.0000   1.0000   1.0000   1.0000   1.0000   1.0000   1.0000   1.0000
     1.0000   1.0000   1.0000   1.0000   1.0000   1.0000   1.0000   1.0000
     1.0000   1.0000   1.0000   1.0000   1.0000   1.0000   1.0000   1.0000
     1.0000   1.0000   1.0000   1.0000   1.0000   1.0000   1.0000   1.0000
     1.0000   1.0000   1.0000   1.0000   1.0000   1.0000   1.0000   1.0000
     1.0000   1.0000   1.0000   1.0000   1.0000   1.0000   1.0000   1.0000
     1.0000   1.0000   1.0000   1.0000   1.0000   1.0000   1.0000   1.0000
     1.0000   1.0000   1.0000   1.0000   1.0000   1.0000   1.0000   1.0000
     1.0000   1.0000   1.0000   1.0000   1.0000   1.0000   1.0000   1.0000
     1.0000   1.0000   1.0000   1.0000   1.0000   1.0000   1.0000   1.0000
     1.0000   1.0000   1.0000   1.0000   1.0000   1.0000   1.0000   1.0000
     1.0000   1.0000   1.0000   1.0000   1.0000   1.0000   1.0000   1.0000
     1.0000   1.0000   1.0000   1.0000   1.0000   1.0000   1.0000   1.0000
     1.0000   1.0000   1.0000   1.0000   1.0000   1.0000   1.0000   1.0000
     1.0000   1.0000   1.0000   1.0000   1.0000   1.0000   1.0000   1.0000
     1.0000   1.0000   1.0000   1.0000   1.0000   1.0000   1.0000   1.0000
     1.0000   1.0000   1.0000   1.0000   1.0000   1.0000   1.0000   1.0000
     1.0000   1.0000   1.0000   1.0000   1.0000   1.0000   1.0000   1.0000
     1.0000   1.0000   1.0000   1.0000   1.0000   1.0000   1.0000   1.0000
     1.0000   1.0000   1.0000   1.0000   1.0000   1.0000   1.0000   1.0000
     1.0000   1.0000   1.0000   1.0000   1.0000   1.0000   1.0000   1.0000
     1.0000   1.0000   1.0000   1.0000   1.0000   1.0000   1.0000   1.0000
     1.0000   1.0000   1.0000   1.0000   1.0000   1.0000   1.0000   1.0000
     1.0000   1.0000   1.0000   1.0000   1.0000   1.0000   1.0000   1.0000
     1.0000   1.0000   1.0000   1.0000   1.0000   1.0000   1.0000   1.0000
     1.0000   1.0000   1.0000   1.0000   1.0000   1.0000   1.0000   1.0000
     1.0000   1.0000   1.0000   1.0000   1.0000   1.0000   1.0000   1.0000
     1.0000   1.0000   1.0000   1.0000   1.0000   1.0000   1.0000   1.0000
     1.0000   1.0000   1.0000   1.0000   1.0000   1.0000   1.0000   1.0000
     1.0000   1.0000   1.0000   1.0000   1.0000   1.0000   0.9812   0.8139
     0.0402   0.0071   0.0005   0.0001   0.0000   0.0000   0.0000   0.0000
     0.0000   0.0000   0.0000   0.0000   0.0000   0.0000   0.0000   0.0000
     0.0000   0.0000   0.0000   0.0000   0.0000   0.0000   0.0000   0.0000
     0.0000   0.0000   0.0000   0.0000   0.0000   0.0000   0.0000   0.0000
     0.0000   0.0000   0.0000   0.0000   0.0000   0.0000   0.0000   0.0000
     0.0000   0.0000   0.0000   0.0000   0.0000   0.0000   0.0000   0.0000
     0.0000   0.0000   0.0000   0.0000   0.0000   0.0000   0.0000   0.0000
     0.0000   0.0000   0.0000   0.0000   0.0000   0.0000   0.0000   0.0000
     0.0000   0.0000   0.0000   0.0000   0.0000   0.0000   0.0000   0.0000
     0.0000   0.0000   0.0000   0.0000   0.0000   0.0000   0.0000   0.0000
     0.0000   0.0000   0.0000   0.0000   0.0000   0.0000

          k = 0.0000-0.3333 0.0000 ( 21002 PWs)   bands (ev):

   -47.7373 -47.6385 -47.6311 -47.6029 -47.5993 -47.5937 -47.5922 -47.5733
   -47.5727 -47.5718 -47.5640 -47.5626 -47.5598 -47.5505 -47.5478 -47.5440
   -47.5421 -47.5348 -47.5326 -47.5305 -47.5287 -47.5278 -47.5256 -47.5224
   -47.5099 -47.5094 -47.4893 -47.4851 -47.4754 -47.4716 -47.4626 -47.4505
   -47.4468 -47.4340 -47.3842 -47.3454 -26.4282 -24.1548 -24.1378 -24.0929
   -24.0747 -24.0527 -24.0522 -24.0506 -24.0448 -24.0413 -24.0373 -24.0317
   -24.0249 -24.0197 -24.0128 -24.0096 -23.9800 -23.9793 -23.9684 -23.9659
   -23.9643 -23.9559 -23.9501 -23.9372 -23.9224 -23.9149 -23.9084 -23.8957
   -23.8852 -23.8802 -23.8769 -23.8699 -23.8575 -23.8516 -23.8440 -23.8408
   -23.8336 -23.8276 -23.8208 -23.8122 -23.8108 -23.8074 -23.8035 -23.8010
   -23.7957 -23.7954 -23.7910 -23.7886 -23.7869 -23.7810 -23.7799 -23.7753
   -23.7732 -23.7710 -23.7687 -23.7674 -23.7623 -23.7610 -23.7593 -23.7557
   -23.7523 -23.7455 -23.7429 -23.7421 -23.7400 -23.7392 -23.7352 -23.7318
   -23.7309 -23.7281 -23.7262 -23.7203 -23.7200 -23.7162 -23.7146 -23.7118
   -23.7073 -23.7053 -23.7033 -23.7014 -23.7008 -23.6967 -23.6955 -23.6919
   -23.6890 -23.6879 -23.6870 -23.6822 -23.6796 -23.6778 -23.6772 -23.6747
   -23.6708 -23.6673 -23.6649 -23.6637 -23.6615 -23.6530 -23.6383 -23.6329
   -23.6082 -23.6022 -23.5948 -23.5892 -23.5811 -23.5453 -23.5403 -23.5279
   -23.1518 -12.8890  -9.0357  -8.9731  -8.8542  -8.6832  -8.4417  -8.4274
    -8.3779  -8.3726  -8.3637  -8.3300  -8.3102  -8.2007  -8.1682  -8.1342
    -8.1084  -8.0605  -8.0279  -8.0150  -7.9875  -7.9828  -7.9705  -7.9509
    -7.9451  -7.9337  -7.9190  -7.8962  -7.8886  -7.8699  -7.8390  -7.7920
    -7.7830  -7.7683  -7.7563  -7.7286  -7.7108  -7.7077  -7.6891  -7.6633
    -7.6474  -7.6316  -7.6083  -7.5886  -7.5883  -7.5700  -7.5677  -7.5580
    -7.5393  -7.5286  -7.5266  -7.5084  -7.5011  -7.4991  -7.4874  -7.4850
    -7.4805  -7.4712  -7.4686  -7.4585  -7.4496  -7.4445  -7.4413  -7.4140
    -7.4058  -7.3768  -7.3142  -7.3067  -7.2790  -7.2732  -7.2243  -6.7410
    -3.0409  -1.6424  -0.8454   2.0442   3.0683   3.6482   3.6968   3.7405
     3.8117   4.0246   4.0719   4.1257   4.1531   4.2001   4.2414   4.3553
     4.4027   4.4477   4.5040   4.5374   4.5450   4.5735   4.5864   4.5962
     4.6064   4.6115   4.6176   4.6257   4.6378   4.6536   4.6626   4.6714
     4.6875   4.6897   4.7003   4.7130   4.7153   4.7451   4.7638   4.7822
     4.7972   4.8012   4.8270   4.8481   4.8610   4.8727   4.9028   4.9266
     4.9311   4.9419   4.9605   4.9769   5.0037   5.0079   5.0269   5.0313
     5.0356   5.0571   5.0669   5.0861   5.1348   5.1953   5.2101   5.2461
     5.2868   5.3269   5.3413   5.3858   5.3936   5.4189   5.4455   5.4684
     5.4800   5.4853   5.4997   5.5090   5.5404   5.5731   5.5888   5.6463
     5.6741   5.6804   5.6997   5.7232   5.7239   5.7395   5.7500   5.7607
     5.7682   5.7810   5.7987   5.8069   5.8143   5.8621   5.8856   5.8910
     5.9050   5.9292   5.9366   5.9422   5.9772   5.9851   6.0030   6.0425
     6.0536   6.0835   6.0965   6.1508   6.1695   6.2350   6.2857   6.3341
     6.3970   6.4237   6.4719   6.4857   6.5624   6.5901   6.6114   6.6368
     6.6500   6.6779   6.6832   6.7087   6.7199   6.7328   6.7586   6.7857
     6.8073   6.8158   6.8304   6.8818   6.9024   6.9368   6.9438   6.9700
     6.9992   7.0043   7.0370   7.0810   7.1408   7.1473   7.1718   7.2140
     7.2177   7.2493   7.2726   7.2851   7.3197   7.3413   7.3645   7.3867
     7.3889   7.4021   7.4123   7.4477   7.4643   7.4789   7.4961   7.4972
     7.5374   7.5489   7.5678   7.5886   7.6182   7.6253   7.6325   7.6439
     7.6600   7.6665   7.6842   7.6946   7.7057   7.7247   7.7927   7.8359
     7.8961   7.9340   7.9372   8.0533   8.0772   8.1003   8.1305   8.1353
     8.1504   8.1672   8.1831   8.1893   8.2314   8.2533   8.2562   8.2636
     8.2702   8.2718   8.2813   8.2851   8.2900   8.3060   8.3076   8.3194
     8.3239   8.3532   8.3778   8.3809   8.3871   8.4254   8.4568   8.4901
     8.5183   8.5989   9.0391   9.1031   9.8477  10.4881  10.8557  11.0089
    11.2077  11.2807  11.3301  11.3387  11.4013  11.4461  11.4850  11.5160
    11.5401  11.5509  11.5796  11.5822  11.5916  11.6058  11.6191  11.6322
    11.6556  11.6623  11.6905  11.6993  11.7046  11.7436  11.7525  11.7667
    11.7740  11.8171  11.8226  11.8397  11.8501  11.8701  11.8782  11.9229
    11.9427  11.9480  11.9704  11.9723  12.0011  12.0564  12.1037  12.1339
    12.1446  12.1717  12.1899  12.1952  12.2108  12.2388  12.2422  12.2499
    12.2667  12.2845  12.2886  12.3109  12.3346  12.3456  12.3496  12.3698
    12.3756  12.3823  12.3951  12.4060  12.4175  12.4258  12.4366  12.4503
    12.4616  12.4843  12.5041  12.5057  12.5117  12.5161  12.5210  12.5330
    12.5468  12.5514  12.5622  12.5736  12.5864  12.6174  12.6555  12.7129
    12.7533  12.7946  12.8659  12.9022  12.9162  12.9356

     occupation numbers 
     1.0000   1.0000   1.0000   1.0000   1.0000   1.0000   1.0000   1.0000
     1.0000   1.0000   1.0000   1.0000   1.0000   1.0000   1.0000   1.0000
     1.0000   1.0000   1.0000   1.0000   1.0000   1.0000   1.0000   1.0000
     1.0000   1.0000   1.0000   1.0000   1.0000   1.0000   1.0000   1.0000
     1.0000   1.0000   1.0000   1.0000   1.0000   1.0000   1.0000   1.0000
     1.0000   1.0000   1.0000   1.0000   1.0000   1.0000   1.0000   1.0000
     1.0000   1.0000   1.0000   1.0000   1.0000   1.0000   1.0000   1.0000
     1.0000   1.0000   1.0000   1.0000   1.0000   1.0000   1.0000   1.0000
     1.0000   1.0000   1.0000   1.0000   1.0000   1.0000   1.0000   1.0000
     1.0000   1.0000   1.0000   1.0000   1.0000   1.0000   1.0000   1.0000
     1.0000   1.0000   1.0000   1.0000   1.0000   1.0000   1.0000   1.0000
     1.0000   1.0000   1.0000   1.0000   1.0000   1.0000   1.0000   1.0000
     1.0000   1.0000   1.0000   1.0000   1.0000   1.0000   1.0000   1.0000
     1.0000   1.0000   1.0000   1.0000   1.0000   1.0000   1.0000   1.0000
     1.0000   1.0000   1.0000   1.0000   1.0000   1.0000   1.0000   1.0000
     1.0000   1.0000   1.0000   1.0000   1.0000   1.0000   1.0000   1.0000
     1.0000   1.0000   1.0000   1.0000   1.0000   1.0000   1.0000   1.0000
     1.0000   1.0000   1.0000   1.0000   1.0000   1.0000   1.0000   1.0000
     1.0000   1.0000   1.0000   1.0000   1.0000   1.0000   1.0000   1.0000
     1.0000   1.0000   1.0000   1.0000   1.0000   1.0000   1.0000   1.0000
     1.0000   1.0000   1.0000   1.0000   1.0000   1.0000   1.0000   1.0000
     1.0000   1.0000   1.0000   1.0000   1.0000   1.0000   1.0000   1.0000
     1.0000   1.0000   1.0000   1.0000   1.0000   1.0000   1.0000   1.0000
     1.0000   1.0000   1.0000   1.0000   1.0000   1.0000   1.0000   1.0000
     1.0000   1.0000   1.0000   1.0000   1.0000   1.0000   1.0000   1.0000
     1.0000   1.0000   1.0000   1.0000   1.0000   1.0000   1.0000   1.0000
     1.0000   1.0000   1.0000   1.0000   1.0000   1.0000   1.0000   1.0000
     1.0000   1.0000   1.0000   1.0000   1.0000   1.0000   1.0000   1.0000
     1.0000   1.0000   1.0000   1.0000   1.0000   1.0000   1.0000   1.0000
     1.0000   1.0000   1.0000   1.0000   1.0000   1.0000   1.0000   1.0000
     1.0000   1.0000   1.0000   1.0000   1.0000   1.0000   1.0000   1.0000
     1.0000   1.0000   1.0000   1.0000   1.0000   1.0000   1.0000   1.0000
     1.0000   1.0000   1.0000   1.0000   1.0000   1.0000   1.0000   1.0000
     1.0000   1.0000   1.0000   1.0000   1.0000   1.0000   1.0000   1.0000
     1.0000   1.0000   1.0000   1.0000   1.0000   1.0000   1.0000   1.0000
     1.0000   1.0000   1.0000   1.0000   1.0000   1.0000   1.0000   1.0000
[...]
     atom   50 type  2   force =    -0.00001010    0.00008198    0.00001313
     atom   51 type  2   force =    -0.00006831   -0.00001761    0.00001059
     atom   52 type  2   force =    -0.00008119    0.00011260   -0.00006320
     atom   53 type  2   force =    -0.00003546    0.00001706    0.00003607
     atom   54 type  1   force =    -0.00002061   -0.00004960   -0.00004206
     atom   55 type  1   force =     0.00007559   -0.00014533    0.00002798
     atom   56 type  2   force =     0.00004418   -0.00005208   -0.00001743
     atom   57 type  2   force =     0.00001399   -0.00010028   -0.00001569
     atom   58 type  2   force =     0.00009255   -0.00008997   -0.00005004
     atom   59 type  2   force =    -0.00000616   -0.00005994    0.00000284
     atom   60 type  1   force =    -0.00000933   -0.00003186    0.00006571
     atom   61 type  1   force =     0.00004592   -0.00012928    0.00003693
     atom   62 type  2   force =     0.00004686   -0.00003216    0.00006858
     atom   63 type  2   force =    -0.00000474   -0.00010698    0.00006535
     atom   64 type  2   force =     0.00001081   -0.00003532    0.00001949
     atom   65 type  2   force =     0.00003387   -0.00006709    0.00007496
     atom   66 type  1   force =     0.00001422   -0.00006638   -0.00002553
     atom   67 type  1   force =     0.00005826   -0.00013489   -0.00006260
     atom   68 type  2   force =     0.00003722   -0.00004179   -0.00005223
     atom   69 type  2   force =    -0.00001014   -0.00007530   -0.00004958
     atom   70 type  2   force =     0.00008809   -0.00011193    0.00003029
     atom   71 type  2   force =    -0.00001229   -0.00000806   -0.00007374
     atom   72 type  1   force =    -0.00003263   -0.00006753   -0.00004091
     atom   73 type  1   force =    -0.00001702   -0.00001050   -0.00000419
     atom   74 type  2   force =    -0.00002624   -0.00004697   -0.00008975
     atom   75 type  2   force =     0.00003125    0.00006863   -0.00009740
     atom   76 type  2   force =     0.00000771   -0.00004856    0.00002325
     atom   77 type  2   force =     0.00000574    0.00002486    0.00001095
     atom   78 type  1   force =    -0.00005465   -0.00008046    0.00004480
     atom   79 type  1   force =     0.00000908    0.00002041    0.00011620
     atom   80 type  2   force =     0.00001282   -0.00000752    0.00010850
     atom   81 type  2   force =     0.00002558    0.00005331    0.00012709
     atom   82 type  2   force =    -0.00003232    0.00001078    0.00005712
     atom   83 type  2   force =     0.00004553   -0.00001120    0.00006529
     atom   84 type  1   force =     0.00000851   -0.00003275   -0.00000976
     atom   85 type  1   force =    -0.00001437   -0.00000193   -0.00012052
     atom   86 type  2   force =    -0.00000411   -0.00001046   -0.00001861
     atom   87 type  2   force =     0.00000249    0.00003631   -0.00003196
     atom   88 type  2   force =    -0.00003299    0.00000542   -0.00007735
     atom   89 type  2   force =     0.00003225    0.00000253   -0.00007964
     atom   90 type  1   force =    -0.00005907    0.00008499   -0.00009600
     atom   91 type  1   force =     0.00012574    0.00015283   -0.00001169
     atom   92 type  2   force =     0.00005396    0.00009227   -0.00009240
     atom   93 type  2   force =     0.00012191    0.00009347   -0.00007552
     atom   94 type  2   force =     0.00007371    0.00007540   -0.00000160
     atom   95 type  2   force =     0.00000854    0.00003842    0.00001148
     atom   96 type  1   force =    -0.00004032    0.00008871    0.00010468
     atom   97 type  1   force =     0.00008592    0.00009181    0.00008701
     atom   98 type  2   force =     0.00002884    0.00007291    0.00007518
     atom   99 type  2   force =     0.00007561    0.00006671    0.00003172
     atom  100 type  2   force =     0.00005123    0.00004641    0.00005569
     atom  101 type  2   force =     0.00000873    0.00002650    0.00004547
     atom  102 type  1   force =    -0.00002338    0.00007442   -0.00001048
     atom  103 type  1   force =     0.00012381    0.00011838   -0.00008252
     atom  104 type  2   force =     0.00005841    0.00003573    0.00003696
     atom  105 type  2   force =     0.00004006    0.00008836   -0.00005203
     atom  106 type  2   force =     0.00003971   -0.00000861   -0.00005519
     atom  107 type  2   force =     0.00002527   -0.00002020   -0.00003267
     atom  108 type  2   force =     0.00001886   -0.00003214    0.00001026

     Total force =     0.123909     Total SCF correction =     0.001118
     Energy error            =      2.6E-02 Ry
     Gradient error          =      5.5E-02 Ry/Bohr

     number of scf cycles    =   9
     number of bfgs steps    =   8

     energy             old  =   -7207.5137670172 Ry
     energy             new  =   -7207.5397925471 Ry

     CASE: energy            _new < energy            _old

     new trust radius        =       0.2440533331 bohr
     new conv_thr            =       0.0000005476 Ry


ATOMIC_POSITIONS (angstrom)
Ti            0.0376102593        0.0469499610        0.0015033162
Ti            2.2369291319        2.3298021384        1.3569927164
O             1.4065316362        1.4129482900       -0.0026328031
O             3.2531269756        3.1165759455       -0.1510898874
O             3.7100588596        0.9849075064        1.5025647102
O             0.8545953025        3.6448509875        1.4460520938
Ti            0.1133828349        0.1065336914        2.9468525077
Ti            2.1602404000        2.1438681366        4.6134102568
O             1.5030552859        1.4949619122        2.9240569203
O             3.7073832829        0.9633222250        4.3918323086
O             1.0141103141        3.6991430330        4.3836909859
Ti           -0.1158406048       -0.1250289774        5.9197611968
Ti            2.3390115403        2.3315057838        7.3393592305
O             1.3420855599        1.3362667778        5.9552045962
O             3.1766845973        3.1449363810        5.8623965378
O             3.6894792795        0.8731412834        7.3933827014
O             0.9199438056        3.6644352771        7.4084326322
Ti           -0.0469873477        4.5460141898       -0.0141369265
Ti            2.3447528548        6.8673670194        1.4839128893
O             1.4197473676        5.9966056446        0.0183124699
O             2.9680654432        8.1742588317       -0.1024304637
O             3.2887985551        4.2648659054        1.9681158763
O             0.8806942343        8.2888724181        1.5018852485
Ti           -0.0367697102        4.5358113169        2.9685975255
Ti            2.2068625131        6.8276912108        4.3935833085
O             1.3978168613        6.0567822103        2.9034794691
O             3.0946405156        7.9993232876        3.1413972448
O             3.6660866944        5.5297389977        4.4436097042
O             0.8304462599        8.3079920908        4.4670919065
Ti            0.0091635594        4.6084317904        5.9152800076
Ti            2.2188404732        6.8610933529        7.4524940602
O             1.3786478994        6.0376854527        5.9276129974
O             3.1400175383        7.7599567788        5.9264481142
O             3.6098656817        5.4451729752        7.2236128451
O             0.7874893403        8.2666752626        7.3437465098
Ti            0.0587987528        9.2030858118        0.0206881417
Ti            2.3008770277       11.5059506758        1.4893960925
O             1.3923378782       10.5999976789       -0.0332892840
O             3.1893078558       12.4014620165        0.0182984736
O             3.7175905807       10.1423662407        1.5149222966
O             0.9137999022       12.8980168878        1.4898413245
Ti            0.0345402543        9.1801810461        2.9521461910
Ti            2.3234013877       11.4863245105        4.4388678771
O             1.3973799118       10.5893457814        2.9859102981
O             3.1886453254       12.4064923794        2.9517122940
O             3.8289531022       10.1993010050        4.5233803345
O             0.8926321882       12.8880250274        4.4323248288
Ti           -0.0299764143        9.2231891697        5.9048597187
Ti            2.3340163505       11.4869177838        7.3758174666
O             1.4002486036       10.5924389963        5.9229586285
O             3.1456243620       12.4500276150        5.9002984255
O             3.8680643517       10.2367955117        7.2696331792
O             0.8793888038       12.8721001446        7.3830682744
Ti            4.5839107346        0.0005337765        0.0009077512
Ti            6.8825851737        2.2717798120        1.4862220037
O             6.0025097746        1.3894712853       -0.0108444009
O             7.8143172787        3.2032310072       -0.0127966936
O             8.3186601313        0.9160519810        1.4880871627
O             5.5981822020        3.7013229970        1.4478029800
Ti            4.5822202119        0.0190703475        2.9501640133
Ti            6.8456980155        2.2979292014        4.4462263304
O             6.0324188207        1.3633830375        2.9417896404
O             7.8114406737        3.1965138028        2.9679242377
O             8.2940555239        0.8927012658        4.4281326465
O             5.3682171369        3.6222071606        4.3294019480
Ti            4.5944596900       -0.0280291327        5.9228564363
Ti            6.8842088825        2.2937417070        7.3827043867
O             6.0079003423        1.3862593703        5.9214494156
O             7.7943839953        3.1947858560        5.8948806690
O             8.2724876714        0.8787308172        7.3859679075
O             5.4740386392        3.6796357614        7.4049887413
Ti            4.5849921281        4.4187280582        0.0824496370
Ti            6.9942753424        6.9054040794        1.4266861144
O             6.2330802101        5.8509557759        0.0059265736
O             7.8176913082        7.8226400403       -0.0091533891
O             8.4008409368        5.5343536985        1.5142087875
O             5.6533841425        8.5168743745        1.4185284889
Ti            4.6759599652        4.7818087530        3.0130070592
Ti            6.9560934494        6.9662823285        4.4452375114
O             6.1587578721        5.9643943414        2.9674657025
O             7.8251013833        7.7978115583        2.9724585562
O             8.3505935143        5.4773818362        4.4482289629
O             5.5506397039        8.3508935248        4.4707859696
Ti            4.6141183666        4.6335473399        5.9493701123
Ti            6.8721356450        6.8699698581        7.4211802100
O             6.0028551729        5.9781726073        5.9149180340
O             7.8016575714        7.7577002507        5.9201027521
O             8.3858848543        5.5169271968        7.3402598902
O             5.5195438611        8.3070550022        7.3943829595
Ti            4.5143414571        9.1805742173       -0.0116362332
Ti            6.7367294133       11.3349234045        1.4712421119
O             5.9779388457       10.6669560684       -0.0607779965
O             7.8196053931       12.4173058336        0.0985416046
O             8.2902348251       10.1161246160        1.4705014421
O             5.4919803752       12.8848774447        1.4720080196
Ti            4.5890082940        9.1813110487        2.9504993432
Ti            7.0662419572       11.6676522266        4.2298696919
O             5.9976898840       10.6596974938        3.0232641216
O             7.8456241609       12.4441125795        2.8627055442
O             8.1823551683       10.1078864030        4.4605530805
O             5.4729537909       12.8296249499        4.4754456765
Ti            4.3983379845        8.9929241690        5.9038031253
Ti            7.0455660610       11.6202491353        7.5923122088
O             7.6861616756       12.3050617362        5.9174452694
O             8.1907836384       10.1116400741        7.3736720061
O             5.4808361142       12.8355068446        7.3536282594
O             3.9542438548        6.2352095883        9.2834262139
O             4.2058613624        6.5994561179       10.6401700351



     Writing config-only to output data dir ./tmp/TiO2_defect_O2.save/
     NEW-OLD atomic charge density approx. for the potential

     Check: negative core charge=   -0.000017

     total cpu time spent up to now is    31012.3 secs

     Self-consistent Calculation

     iteration #  1     ecut=    30.00 Ry     beta= 0.70
     Davidson diagonalization with overlap

---- Real-time Memory Report at c_bands before calling an iterative solver
          2164 MiB given to the printing process from OS
             0 MiB allocation reported by mallinfo(arena+hblkhd)
         10664 MiB available memory on the node where the printing process lives
------------------
     c_bands:  1 eigenvalues not converged
     ethr =  1.00E-06,  avg # of iterations = 15.2

     total cpu time spent up to now is    31391.6 secs

     total energy              =   -7207.53978117 Ry
     estimated scf accuracy    <       0.05279261 Ry

     iteration #  2     ecut=    30.00 Ry     beta= 0.70
     Davidson diagonalization with overlap

---- Real-time Memory Report at c_bands before calling an iterative solver
          2164 MiB given to the printing process from OS
             0 MiB allocation reported by mallinfo(arena+hblkhd)
         10634 MiB available memory on the node where the printing process lives
------------------
     c_bands:  1 eigenvalues not converged
     ethr =  6.11E-06,  avg # of iterations = 29.2

     total cpu time spent up to now is    31757.5 secs

     total energy              =   -7207.46707057 Ry
     estimated scf accuracy    <       1.13833799 Ry

     iteration #  3     ecut=    30.00 Ry     beta= 0.70
     Davidson diagonalization with overlap

---- Real-time Memory Report at c_bands before calling an iterative solver
          2164 MiB given to the printing process from OS
             0 MiB allocation reported by mallinfo(arena+hblkhd)
         10629 MiB available memory on the node where the printing process lives
------------------
     c_bands:  1 eigenvalues not converged
     c_bands:  1 eigenvalues not converged
     c_bands:  1 eigenvalues not converged
     c_bands:  1 eigenvalues not converged
     ethr =  6.11E-06,  avg # of iterations = 36.6

     total cpu time spent up to now is    32134.1 secs

     total energy              =   -7207.55140810 Ry
     estimated scf accuracy    <       0.11633553 Ry

     iteration #  4     ecut=    30.00 Ry     beta= 0.70
     Davidson diagonalization with overlap

---- Real-time Memory Report at c_bands before calling an iterative solver
          2164 MiB given to the printing process from OS
             0 MiB allocation reported by mallinfo(arena+hblkhd)
         10622 MiB available memory on the node where the printing process lives
------------------
     ethr =  6.11E-06,  avg # of iterations = 15.1

     total cpu time spent up to now is    32303.7 secs

     total energy              =   -7207.56148404 Ry
     estimated scf accuracy    <       0.03492711 Ry

     iteration #  5     ecut=    30.00 Ry     beta= 0.70
     Davidson diagonalization with overlap

---- Real-time Memory Report at c_bands before calling an iterative solver
          2164 MiB given to the printing process from OS
             0 MiB allocation reported by mallinfo(arena+hblkhd)
         10616 MiB available memory on the node where the printing process lives
------------------
     c_bands:  1 eigenvalues not converged
     c_bands:  2 eigenvalues not converged
     c_bands:  1 eigenvalues not converged
     c_bands:  1 eigenvalues not converged
     c_bands:  1 eigenvalues not converged
     c_bands:  1 eigenvalues not converged
     c_bands:  1 eigenvalues not converged
     ethr =  4.04E-06,  avg # of iterations = 19.9

     total cpu time spent up to now is    32459.3 secs

     total energy              =   -7207.56189562 Ry
     estimated scf accuracy    <       0.05223306 Ry

     iteration #  6     ecut=    30.00 Ry     beta= 0.70
     Davidson diagonalization with overlap

---- Real-time Memory Report at c_bands before calling an iterative solver
          2164 MiB given to the printing process from OS
             0 MiB allocation reported by mallinfo(arena+hblkhd)
         10610 MiB available memory on the node where the printing process lives
------------------
     c_bands:  1 eigenvalues not converged
     c_bands:  3 eigenvalues not converged
     c_bands:  1 eigenvalues not converged
     c_bands:  1 eigenvalues not converged
     c_bands:  1 eigenvalues not converged
     c_bands:  1 eigenvalues not converged
     ethr =  4.04E-06,  avg # of iterations = 19.9

     total cpu time spent up to now is    32602.6 secs

     total energy              =   -7207.56523712 Ry
     estimated scf accuracy    <       0.02452517 Ry

     iteration #  7     ecut=    30.00 Ry     beta= 0.70
     Davidson diagonalization with overlap

---- Real-time Memory Report at c_bands before calling an iterative solver
          2164 MiB given to the printing process from OS
             0 MiB allocation reported by mallinfo(arena+hblkhd)
         10605 MiB available memory on the node where the printing process lives
------------------
     c_bands:  1 eigenvalues not converged
     ethr =  2.84E-06,  avg # of iterations = 11.6

     total cpu time spent up to now is    32715.8 secs

     total energy              =   -7207.56687953 Ry
     estimated scf accuracy    <       0.00353794 Ry

     iteration #  8     ecut=    30.00 Ry     beta= 0.70
     Davidson diagonalization with overlap

---- Real-time Memory Report at c_bands before calling an iterative solver
          2164 MiB given to the printing process from OS
             0 MiB allocation reported by mallinfo(arena+hblkhd)
         10599 MiB available memory on the node where the printing process lives
------------------
     ethr =  4.09E-07,  avg # of iterations = 10.2

     total cpu time spent up to now is    32832.3 secs

     total energy              =   -7207.56719011 Ry
     estimated scf accuracy    <       0.00299397 Ry

     iteration #  9     ecut=    30.00 Ry     beta= 0.70
     Davidson diagonalization with overlap

---- Real-time Memory Report at c_bands before calling an iterative solver
          2164 MiB given to the printing process from OS
             0 MiB allocation reported by mallinfo(arena+hblkhd)
         10594 MiB available memory on the node where the printing process lives
------------------
     ethr =  3.47E-07,  avg # of iterations =  4.4

     total cpu time spent up to now is    32926.9 secs

     total energy              =   -7207.56742302 Ry
     estimated scf accuracy    <       0.00117511 Ry

     iteration # 10     ecut=    30.00 Ry     beta= 0.70
     Davidson diagonalization with overlap

---- Real-time Memory Report at c_bands before calling an iterative solver
          2164 MiB given to the printing process from OS
             0 MiB allocation reported by mallinfo(arena+hblkhd)
         10504 MiB available memory on the node where the printing process lives
------------------
     ethr =  1.36E-07,  avg # of iterations =  5.0

     total cpu time spent up to now is    33020.6 secs

     total energy              =   -7207.56752642 Ry
     estimated scf accuracy    <       0.00012629 Ry

     iteration # 11     ecut=    30.00 Ry     beta= 0.70
     Davidson diagonalization with overlap

---- Real-time Memory Report at c_bands before calling an iterative solver
          2164 MiB given to the printing process from OS
             0 MiB allocation reported by mallinfo(arena+hblkhd)
         10504 MiB available memory on the node where the printing process lives
------------------
