
     Program PWSCF v.7.2 starts on 23Jun2025 at  4:30:56 

     This program is part of the open-source Quantum ESPRESSO suite
     for quantum simulation of materials; please cite
         "P. Giannozzi et al., J. Phys.:Condens. Matter 21 395502 (2009);
         "P. Giannozzi et al., J. Phys.:Condens. Matter 29 465901 (2017);
         "P. Giannozzi et al., J. Chem. Phys. 152 154105 (2020);
          URL http://www.quantum-espresso.org", 
     in publications or presentations arising from this work. More details at
     http://www.quantum-espresso.org/quote

     Parallel version (MPI & OpenMP), running on       4 processor cores
     Number of MPI processes:                 2
     Threads/MPI process:                     2

     MPI processes distributed on     1 nodes
     12706 MiB available memory on the printing compute node when the environment starts

     Reading input from TiO2_defect_plus_O2.in

     Current dimensions of program PWSCF are:
     Max number of different atomic species (ntypx) = 10
     Max number of k-points (npk) =  40000
     Max angular momentum in pseudopotentials (lmaxx) =  4
     file O.upf: wavefunction(s)  2P renormalized

     R & G space division:  proc/nbgrp/npool/nimage =       2
     Subspace diagonalization in iterative solution of the eigenvalue problem:
     a serial algorithm will be used


     Parallelization info
     --------------------
     sticks:   dense  smooth     PW     G-vecs:    dense   smooth      PW
     Min        4314    2159    594               237894    84023   12245
     Max        4315    2160    595               237897    84026   12246
     Sum        8629    4319   1189               475791   168049   24491

     Using Slab Decomposition



     bravais-lattice index     =            0
     lattice parameter (alat)  =      17.3560  a.u.
     unit-cell volume          =    7575.6650 (a.u.)^3
     number of atoms/cell      =          108
     number of atomic types    =            2
     number of electrons       =       864.00
     number of Kohn-Sham states=          518
     kinetic-energy cutoff     =      30.0000  Ry
     charge density cutoff     =     240.0000  Ry
     scf convergence threshold =      1.0E-06
     mixing beta               =       0.7000
     number of iterations used =            8  plain     mixing
     Exchange-correlation= SLA  PW   PBX  PBC
                           (   1   4   3   4   0   0   0)

     celldm(1)=  17.356001  celldm(2)=   0.000000  celldm(3)=   0.000000
     celldm(4)=   0.000000  celldm(5)=   0.000000  celldm(6)=   0.000000

     crystal axes: (cart. coord. in units of alat)
               a(1) = (   1.000000   0.000000   0.000000 )  
               a(2) = (   0.000000   1.500000   0.000000 )  
               a(3) = (   0.000000   0.000000   0.966008 )  

     reciprocal axes: (cart. coord. in units 2 pi/alat)
               b(1) = (  1.000000  0.000000  0.000000 )  
               b(2) = (  0.000000  0.666667  0.000000 )  
               b(3) = (  0.000000  0.000000  1.035189 )  


     PseudoPot. # 1 for Ti read from file:
     ./Ti.upf
     MD5 check sum: 8e4df49b7f0d34bbd5052bf3f5ea0213
     Pseudo is Ultrasoft, Zval = 12.0
     Generated by new atomic code, or converted to UPF format
     Using radial grid of  851 points,  6 beta functions with: 
                l(1) =   0
                l(2) =   0
                l(3) =   1
                l(4) =   1
                l(5) =   2
                l(6) =   2
     Q(r) pseudized with  8 coefficients,  rinner =    1.000   1.000   1.000
                                                       1.000   1.000

     PseudoPot. # 2 for O  read from file:
     ./O.upf
     MD5 check sum: 0234752ac141de4415c5fc33072bef88
     Pseudo is Projector augmented-wave + core cor, Zval =  6.0
     Generated using "atomic" code by A. Dal Corso  v.5.0.99 svn rev. 10869
     Shape of augmentation charge: BESSEL
     Using radial grid of 1095 points,  4 beta functions with: 
                l(1) =   0
                l(2) =   0
                l(3) =   1
                l(4) =   1
     Q(r) pseudized with 0 coefficients 


     atomic species   valence    mass     pseudopotential
        Ti            12.00    47.86700     Ti( 1.00)
        O              6.00    15.99900     O ( 1.00)

     No symmetry found


                                    s                        frac. trans.

      isym =  1     identity                                     

 cryst.   s( 1) = (     1          0          0      )
                  (     0          1          0      )
                  (     0          0          1      )

 cart.    s( 1) = (  1.0000000  0.0000000  0.0000000 )
                  (  0.0000000  1.0000000  0.0000000 )
                  (  0.0000000  0.0000000  1.0000000 )


   Cartesian axes

     site n.     atom                  positions (alat units)
         1           Ti  tau(   1) = (   0.0000000   0.0000000   0.0000000  )
         2           Ti  tau(   2) = (   0.2500000   0.2500000   0.1610013  )
         3           O   tau(   3) = (   0.1524800   0.1524800   0.0000000  )
         4           O   tau(   4) = (   0.3475200   0.3475200   0.0000000  )
         5           O   tau(   5) = (   0.4024800   0.0975200   0.1610013  )
         6           O   tau(   6) = (   0.0975200   0.4024800   0.1610013  )
         7           Ti  tau(   7) = (   0.0000000   0.0000000   0.3220025  )
         8           Ti  tau(   8) = (   0.2500000   0.2500000   0.4830038  )
         9           O   tau(   9) = (   0.1524800   0.1524800   0.3220025  )
        10           O   tau(  10) = (   0.4024800   0.0975200   0.4830038  )
        11           O   tau(  11) = (   0.0975200   0.4024800   0.4830038  )
        12           Ti  tau(  12) = (   0.0000000   0.0000000   0.6440051  )
        13           Ti  tau(  13) = (   0.2500000   0.2500000   0.8050063  )
        14           O   tau(  14) = (   0.1524800   0.1524800   0.6440051  )
        15           O   tau(  15) = (   0.3475200   0.3475200   0.6440051  )
        16           O   tau(  16) = (   0.4024800   0.0975200   0.8050063  )
        17           O   tau(  17) = (   0.0975200   0.4024800   0.8050063  )
        18           Ti  tau(  18) = (   0.0000000   0.5000000   0.0000000  )
        19           Ti  tau(  19) = (   0.2500000   0.7500000   0.1610013  )
        20           O   tau(  20) = (   0.1524800   0.6524800   0.0000000  )
        21           O   tau(  21) = (   0.3475200   0.8475200   0.0000000  )
        22           O   tau(  22) = (   0.4024800   0.5975200   0.1610013  )
        23           O   tau(  23) = (   0.0975200   0.9024800   0.1610013  )
        24           Ti  tau(  24) = (   0.0000000   0.5000000   0.3220025  )
        25           Ti  tau(  25) = (   0.2500000   0.7500000   0.4830038  )
        26           O   tau(  26) = (   0.1524800   0.6524800   0.3220025  )
        27           O   tau(  27) = (   0.3475200   0.8475200   0.3220025  )
        28           O   tau(  28) = (   0.4024800   0.5975200   0.4830038  )
        29           O   tau(  29) = (   0.0975200   0.9024800   0.4830038  )
        30           Ti  tau(  30) = (   0.0000000   0.5000000   0.6440051  )
        31           Ti  tau(  31) = (   0.2500000   0.7500000   0.8050063  )
        32           O   tau(  32) = (   0.1524800   0.6524800   0.6440051  )
        33           O   tau(  33) = (   0.3475200   0.8475200   0.6440051  )
        34           O   tau(  34) = (   0.4024800   0.5975200   0.8050063  )
        35           O   tau(  35) = (   0.0975200   0.9024800   0.8050063  )
        36           Ti  tau(  36) = (   0.0000000   1.0000000   0.0000000  )
        37           Ti  tau(  37) = (   0.2500000   1.2500000   0.1610013  )
        38           O   tau(  38) = (   0.1524800   1.1524800   0.0000000  )
        39           O   tau(  39) = (   0.3475200   1.3475200   0.0000000  )
        40           O   tau(  40) = (   0.4024800   1.0975200   0.1610013  )
        41           O   tau(  41) = (   0.0975200   1.4024800   0.1610013  )
        42           Ti  tau(  42) = (   0.0000000   1.0000000   0.3220025  )
        43           Ti  tau(  43) = (   0.2500000   1.2500000   0.4830038  )
        44           O   tau(  44) = (   0.1524800   1.1524800   0.3220025  )
        45           O   tau(  45) = (   0.3475200   1.3475200   0.3220025  )
        46           O   tau(  46) = (   0.4024800   1.0975200   0.4830038  )
        47           O   tau(  47) = (   0.0975200   1.4024800   0.4830038  )
        48           Ti  tau(  48) = (   0.0000000   1.0000000   0.6440051  )
        49           Ti  tau(  49) = (   0.2500000   1.2500000   0.8050063  )
        50           O   tau(  50) = (   0.1524800   1.1524800   0.6440051  )
        51           O   tau(  51) = (   0.3475200   1.3475200   0.6440051  )
        52           O   tau(  52) = (   0.4024800   1.0975200   0.8050063  )
        53           O   tau(  53) = (   0.0975200   1.4024800   0.8050063  )
        54           Ti  tau(  54) = (   0.5000000   0.0000000   0.0000000  )
        55           Ti  tau(  55) = (   0.7500000   0.2500000   0.1610013  )
        56           O   tau(  56) = (   0.6524800   0.1524800   0.0000000  )
        57           O   tau(  57) = (   0.8475200   0.3475200   0.0000000  )
        58           O   tau(  58) = (   0.9024800   0.0975200   0.1610013  )
        59           O   tau(  59) = (   0.5975200   0.4024800   0.1610013  )
        60           Ti  tau(  60) = (   0.5000000   0.0000000   0.3220025  )
        61           Ti  tau(  61) = (   0.7500000   0.2500000   0.4830038  )
        62           O   tau(  62) = (   0.6524800   0.1524800   0.3220025  )
        63           O   tau(  63) = (   0.8475200   0.3475200   0.3220025  )
        64           O   tau(  64) = (   0.9024800   0.0975200   0.4830038  )
        65           O   tau(  65) = (   0.5975200   0.4024800   0.4830038  )
        66           Ti  tau(  66) = (   0.5000000   0.0000000   0.6440051  )
        67           Ti  tau(  67) = (   0.7500000   0.2500000   0.8050063  )
        68           O   tau(  68) = (   0.6524800   0.1524800   0.6440051  )
        69           O   tau(  69) = (   0.8475200   0.3475200   0.6440051  )
        70           O   tau(  70) = (   0.9024800   0.0975200   0.8050063  )
        71           O   tau(  71) = (   0.5975200   0.4024800   0.8050063  )
        72           Ti  tau(  72) = (   0.5000000   0.5000000   0.0000000  )
        73           Ti  tau(  73) = (   0.7500000   0.7500000   0.1610013  )
        74           O   tau(  74) = (   0.6524800   0.6524800   0.0000000  )
        75           O   tau(  75) = (   0.8475200   0.8475200   0.0000000  )
        76           O   tau(  76) = (   0.9024800   0.5975200   0.1610013  )
        77           O   tau(  77) = (   0.5975200   0.9024800   0.1610013  )
        78           Ti  tau(  78) = (   0.5000000   0.5000000   0.3220025  )
        79           Ti  tau(  79) = (   0.7500000   0.7500000   0.4830038  )
        80           O   tau(  80) = (   0.6524800   0.6524800   0.3220025  )
        81           O   tau(  81) = (   0.8475200   0.8475200   0.3220025  )
        82           O   tau(  82) = (   0.9024800   0.5975200   0.4830038  )
        83           O   tau(  83) = (   0.5975200   0.9024800   0.4830038  )
        84           Ti  tau(  84) = (   0.5000000   0.5000000   0.6440051  )
        85           Ti  tau(  85) = (   0.7500000   0.7500000   0.8050063  )
        86           O   tau(  86) = (   0.6524800   0.6524800   0.6440051  )
        87           O   tau(  87) = (   0.8475200   0.8475200   0.6440051  )
        88           O   tau(  88) = (   0.9024800   0.5975200   0.8050063  )
        89           O   tau(  89) = (   0.5975200   0.9024800   0.8050063  )
        90           Ti  tau(  90) = (   0.5000000   1.0000000   0.0000000  )
        91           Ti  tau(  91) = (   0.7500000   1.2500000   0.1610013  )
        92           O   tau(  92) = (   0.6524800   1.1524800   0.0000000  )
        93           O   tau(  93) = (   0.8475200   1.3475200   0.0000000  )
        94           O   tau(  94) = (   0.9024800   1.0975200   0.1610013  )
        95           O   tau(  95) = (   0.5975200   1.4024800   0.1610013  )
        96           Ti  tau(  96) = (   0.5000000   1.0000000   0.3220025  )
        97           Ti  tau(  97) = (   0.7500000   1.2500000   0.4830038  )
        98           O   tau(  98) = (   0.6524800   1.1524800   0.3220025  )
        99           O   tau(  99) = (   0.8475200   1.3475200   0.3220025  )
       100           O   tau( 100) = (   0.9024800   1.0975200   0.4830038  )
       101           O   tau( 101) = (   0.5975200   1.4024800   0.4830038  )
       102           Ti  tau( 102) = (   0.5000000   1.0000000   0.6440051  )
       103           Ti  tau( 103) = (   0.7500000   1.2500000   0.8050063  )
       104           O   tau( 104) = (   0.8475200   1.3475200   0.6440051  )
       105           O   tau( 105) = (   0.9024800   1.0975200   0.8050063  )
       106           O   tau( 106) = (   0.5975200   1.4024800   0.8050063  )
       107           O   tau( 107) = (   0.4575471   0.7075471   1.0227669  )
       108           O   tau( 108) = (   0.4575471   0.7075471   1.1545120  )

   Crystallographic axes

     site n.     atom                  positions (cryst. coord.)
         1           Ti  tau(   1) = (  0.0000000  0.0000000  0.0000000  )
         2           Ti  tau(   2) = (  0.2500000  0.1666667  0.1666667  )
         3           O   tau(   3) = (  0.1524800  0.1016533  0.0000000  )
         4           O   tau(   4) = (  0.3475200  0.2316800  0.0000000  )
         5           O   tau(   5) = (  0.4024800  0.0650134  0.1666667  )
         6           O   tau(   6) = (  0.0975200  0.2683200  0.1666667  )
         7           Ti  tau(   7) = (  0.0000000  0.0000000  0.3333333  )
         8           Ti  tau(   8) = (  0.2500000  0.1666667  0.5000000  )
         9           O   tau(   9) = (  0.1524800  0.1016533  0.3333333  )
        10           O   tau(  10) = (  0.4024800  0.0650134  0.5000000  )
        11           O   tau(  11) = (  0.0975200  0.2683200  0.5000000  )
        12           Ti  tau(  12) = (  0.0000000  0.0000000  0.6666667  )
        13           Ti  tau(  13) = (  0.2500000  0.1666667  0.8333333  )
        14           O   tau(  14) = (  0.1524800  0.1016533  0.6666667  )
        15           O   tau(  15) = (  0.3475200  0.2316800  0.6666667  )
        16           O   tau(  16) = (  0.4024800  0.0650134  0.8333333  )
        17           O   tau(  17) = (  0.0975200  0.2683200  0.8333333  )
        18           Ti  tau(  18) = (  0.0000000  0.3333333  0.0000000  )
        19           Ti  tau(  19) = (  0.2500000  0.5000000  0.1666667  )
        20           O   tau(  20) = (  0.1524800  0.4349866  0.0000000  )
        21           O   tau(  21) = (  0.3475200  0.5650134  0.0000000  )
        22           O   tau(  22) = (  0.4024800  0.3983467  0.1666667  )
        23           O   tau(  23) = (  0.0975200  0.6016533  0.1666667  )
        24           Ti  tau(  24) = (  0.0000000  0.3333333  0.3333333  )
        25           Ti  tau(  25) = (  0.2500000  0.5000000  0.5000000  )
        26           O   tau(  26) = (  0.1524800  0.4349866  0.3333333  )
        27           O   tau(  27) = (  0.3475200  0.5650134  0.3333333  )
        28           O   tau(  28) = (  0.4024800  0.3983467  0.5000000  )
        29           O   tau(  29) = (  0.0975200  0.6016533  0.5000000  )
        30           Ti  tau(  30) = (  0.0000000  0.3333333  0.6666667  )
        31           Ti  tau(  31) = (  0.2500000  0.5000000  0.8333333  )
        32           O   tau(  32) = (  0.1524800  0.4349866  0.6666667  )
        33           O   tau(  33) = (  0.3475200  0.5650134  0.6666667  )
        34           O   tau(  34) = (  0.4024800  0.3983467  0.8333333  )
        35           O   tau(  35) = (  0.0975200  0.6016533  0.8333333  )
        36           Ti  tau(  36) = (  0.0000000  0.6666667  0.0000000  )
        37           Ti  tau(  37) = (  0.2500000  0.8333333  0.1666667  )
        38           O   tau(  38) = (  0.1524800  0.7683200  0.0000000  )
        39           O   tau(  39) = (  0.3475200  0.8983467  0.0000000  )
        40           O   tau(  40) = (  0.4024800  0.7316800  0.1666667  )
        41           O   tau(  41) = (  0.0975200  0.9349866  0.1666667  )
        42           Ti  tau(  42) = (  0.0000000  0.6666667  0.3333333  )
        43           Ti  tau(  43) = (  0.2500000  0.8333333  0.5000000  )
        44           O   tau(  44) = (  0.1524800  0.7683200  0.3333333  )
        45           O   tau(  45) = (  0.3475200  0.8983467  0.3333333  )
        46           O   tau(  46) = (  0.4024800  0.7316800  0.5000000  )
        47           O   tau(  47) = (  0.0975200  0.9349866  0.5000000  )
        48           Ti  tau(  48) = (  0.0000000  0.6666667  0.6666667  )
        49           Ti  tau(  49) = (  0.2500000  0.8333333  0.8333333  )
        50           O   tau(  50) = (  0.1524800  0.7683200  0.6666667  )
        51           O   tau(  51) = (  0.3475200  0.8983467  0.6666667  )
        52           O   tau(  52) = (  0.4024800  0.7316800  0.8333333  )
        53           O   tau(  53) = (  0.0975200  0.9349866  0.8333333  )
        54           Ti  tau(  54) = (  0.5000000  0.0000000  0.0000000  )
        55           Ti  tau(  55) = (  0.7500000  0.1666667  0.1666667  )
        56           O   tau(  56) = (  0.6524800  0.1016533  0.0000000  )
        57           O   tau(  57) = (  0.8475200  0.2316800  0.0000000  )
        58           O   tau(  58) = (  0.9024800  0.0650134  0.1666667  )
        59           O   tau(  59) = (  0.5975200  0.2683200  0.1666667  )
        60           Ti  tau(  60) = (  0.5000000  0.0000000  0.3333333  )
        61           Ti  tau(  61) = (  0.7500000  0.1666667  0.5000000  )
        62           O   tau(  62) = (  0.6524800  0.1016533  0.3333333  )
        63           O   tau(  63) = (  0.8475200  0.2316800  0.3333333  )
        64           O   tau(  64) = (  0.9024800  0.0650134  0.5000000  )
        65           O   tau(  65) = (  0.5975200  0.2683200  0.5000000  )
        66           Ti  tau(  66) = (  0.5000000  0.0000000  0.6666667  )
        67           Ti  tau(  67) = (  0.7500000  0.1666667  0.8333333  )
        68           O   tau(  68) = (  0.6524800  0.1016533  0.6666667  )
        69           O   tau(  69) = (  0.8475200  0.2316800  0.6666667  )
        70           O   tau(  70) = (  0.9024800  0.0650134  0.8333333  )
        71           O   tau(  71) = (  0.5975200  0.2683200  0.8333333  )
        72           Ti  tau(  72) = (  0.5000000  0.3333333  0.0000000  )
        73           Ti  tau(  73) = (  0.7500000  0.5000000  0.1666667  )
        74           O   tau(  74) = (  0.6524800  0.4349866  0.0000000  )
        75           O   tau(  75) = (  0.8475200  0.5650134  0.0000000  )
        76           O   tau(  76) = (  0.9024800  0.3983467  0.1666667  )
        77           O   tau(  77) = (  0.5975200  0.6016533  0.1666667  )
        78           Ti  tau(  78) = (  0.5000000  0.3333333  0.3333333  )
        79           Ti  tau(  79) = (  0.7500000  0.5000000  0.5000000  )
        80           O   tau(  80) = (  0.6524800  0.4349866  0.3333333  )
        81           O   tau(  81) = (  0.8475200  0.5650134  0.3333333  )
        82           O   tau(  82) = (  0.9024800  0.3983467  0.5000000  )
        83           O   tau(  83) = (  0.5975200  0.6016533  0.5000000  )
        84           Ti  tau(  84) = (  0.5000000  0.3333333  0.6666667  )
        85           Ti  tau(  85) = (  0.7500000  0.5000000  0.8333333  )
        86           O   tau(  86) = (  0.6524800  0.4349866  0.6666667  )
        87           O   tau(  87) = (  0.8475200  0.5650134  0.6666667  )
        88           O   tau(  88) = (  0.9024800  0.3983467  0.8333333  )
        89           O   tau(  89) = (  0.5975200  0.6016533  0.8333333  )
        90           Ti  tau(  90) = (  0.5000000  0.6666667  0.0000000  )
        91           Ti  tau(  91) = (  0.7500000  0.8333333  0.1666667  )
        92           O   tau(  92) = (  0.6524800  0.7683200  0.0000000  )
        93           O   tau(  93) = (  0.8475200  0.8983467  0.0000000  )
        94           O   tau(  94) = (  0.9024800  0.7316800  0.1666667  )
        95           O   tau(  95) = (  0.5975200  0.9349866  0.1666667  )
        96           Ti  tau(  96) = (  0.5000000  0.6666667  0.3333333  )
        97           Ti  tau(  97) = (  0.7500000  0.8333333  0.5000000  )
        98           O   tau(  98) = (  0.6524800  0.7683200  0.3333333  )
        99           O   tau(  99) = (  0.8475200  0.8983467  0.3333333  )
       100           O   tau( 100) = (  0.9024800  0.7316800  0.5000000  )
       101           O   tau( 101) = (  0.5975200  0.9349866  0.5000000  )
       102           Ti  tau( 102) = (  0.5000000  0.6666667  0.6666667  )
       103           Ti  tau( 103) = (  0.7500000  0.8333333  0.8333333  )
       104           O   tau( 104) = (  0.8475200  0.8983467  0.6666667  )
       105           O   tau( 105) = (  0.9024800  0.7316800  0.8333333  )
       106           O   tau( 106) = (  0.5975200  0.9349866  0.8333333  )
       107           O   tau( 107) = (  0.4575471  0.4716981  1.0587566  )
       108           O   tau( 108) = (  0.4575471  0.4716981  1.1951376  )

     number of k points=     8  Marzari-Vanderbilt smearing, width (Ry)=  0.0100
                       cart. coord. in units 2pi/alat
        k(    1) = (   0.0000000   0.0000000   0.0000000), wk =   0.2500000
        k(    2) = (   0.0000000   0.0000000  -0.5175943), wk =   0.2500000
        k(    3) = (   0.0000000  -0.3333333   0.0000000), wk =   0.2500000
        k(    4) = (   0.0000000  -0.3333333  -0.5175943), wk =   0.2500000
        k(    5) = (  -0.5000000   0.0000000   0.0000000), wk =   0.2500000
        k(    6) = (  -0.5000000   0.0000000  -0.5175943), wk =   0.2500000
        k(    7) = (  -0.5000000  -0.3333333   0.0000000), wk =   0.2500000
        k(    8) = (  -0.5000000  -0.3333333  -0.5175943), wk =   0.2500000

                       cryst. coord.
        k(    1) = (   0.0000000   0.0000000   0.0000000), wk =   0.2500000
        k(    2) = (   0.0000000   0.0000000  -0.5000000), wk =   0.2500000
        k(    3) = (   0.0000000  -0.5000000   0.0000000), wk =   0.2500000
        k(    4) = (   0.0000000  -0.5000000  -0.5000000), wk =   0.2500000
        k(    5) = (  -0.5000000   0.0000000   0.0000000), wk =   0.2500000
        k(    6) = (  -0.5000000   0.0000000  -0.5000000), wk =   0.2500000
        k(    7) = (  -0.5000000  -0.5000000   0.0000000), wk =   0.2500000
        k(    8) = (  -0.5000000  -0.5000000  -0.5000000), wk =   0.2500000

     Dense  grid:   475791 G-vectors     FFT dimensions: (  90, 135,  90)

     Smooth grid:   168049 G-vectors     FFT dimensions: (  64,  96,  60)

     Dynamical RAM for                 wfc:      83.07 MB

     Dynamical RAM for     wfc (w. buffer):     747.64 MB

     Dynamical RAM for           str. fact:       7.26 MB

     Dynamical RAM for           local pot:       0.00 MB

     Dynamical RAM for          nlocal pot:     196.29 MB

     Dynamical RAM for                qrad:       2.49 MB

     Dynamical RAM for          rho,v,vnew:      23.40 MB

     Dynamical RAM for               rhoin:       7.80 MB

     Dynamical RAM for            rho*nmix:      58.08 MB

     Dynamical RAM for           G-vectors:      14.25 MB

     Dynamical RAM for          h,s,v(r/c):      49.13 MB

     Dynamical RAM for          <psi|beta>:       9.67 MB

     Dynamical RAM for                 psi:     166.14 MB

     Dynamical RAM for                hpsi:     166.14 MB

     Dynamical RAM for                spsi:     166.14 MB

     Dynamical RAM for      wfcinit/wfcrot:     217.46 MB

     Dynamical RAM for           addusdens:     936.55 MB

     Estimated static dynamical RAM per process >       1.01 GB

     Estimated max dynamical RAM per process >       1.98 GB

     Estimated total dynamical RAM >       3.96 GB

     Check: negative core charge=   -0.000018

     Initial potential from superposition of free atoms

     starting charge     827.9983, renormalised to     864.0000
     Starting wfcs are  648 randomized atomic wfcs
     Checking if some PAW data can be deallocated... 

     total cpu time spent up to now is       38.0 secs

     Self-consistent Calculation

     iteration #  1     ecut=    30.00 Ry     beta= 0.70
     Davidson diagonalization with overlap

---- Real-time Memory Report at c_bands before calling an iterative solver
          1228 MiB given to the printing process from OS
             0 MiB allocation reported by mallinfo(arena+hblkhd)
         10601 MiB available memory on the node where the printing process lives
------------------
     ethr =  1.00E-02,  avg # of iterations =  3.0

     total cpu time spent up to now is      143.2 secs

     total energy              =   -7184.62159222 Ry
     estimated scf accuracy    <      32.33663368 Ry

     iteration #  2     ecut=    30.00 Ry     beta= 0.70
     Davidson diagonalization with overlap

---- Real-time Memory Report at c_bands before calling an iterative solver
          1904 MiB given to the printing process from OS
             0 MiB allocation reported by mallinfo(arena+hblkhd)
         10537 MiB available memory on the node where the printing process lives
------------------
     ethr =  3.74E-03,  avg # of iterations =  9.1

     total cpu time spent up to now is      415.8 secs

     total energy              =   -7034.68733005 Ry
     estimated scf accuracy    <    3725.23744627 Ry

     iteration #  3     ecut=    30.00 Ry     beta= 0.70
     Davidson diagonalization with overlap

---- Real-time Memory Report at c_bands before calling an iterative solver
          1907 MiB given to the printing process from OS
             0 MiB allocation reported by mallinfo(arena+hblkhd)
         10531 MiB available memory on the node where the printing process lives
------------------
     ethr =  3.74E-03,  avg # of iterations =  8.1

     total cpu time spent up to now is      643.4 secs

     total energy              =   -7125.40014737 Ry
     estimated scf accuracy    <    2837.11594888 Ry

     iteration #  4     ecut=    30.00 Ry     beta= 0.70
     Davidson diagonalization with overlap

---- Real-time Memory Report at c_bands before calling an iterative solver
          1910 MiB given to the printing process from OS
             0 MiB allocation reported by mallinfo(arena+hblkhd)
         10525 MiB available memory on the node where the printing process lives
------------------
     ethr =  3.74E-03,  avg # of iterations =  7.9

     total cpu time spent up to now is      845.5 secs

     total energy              =   -7195.97694967 Ry
     estimated scf accuracy    <     182.45977972 Ry

     iteration #  5     ecut=    30.00 Ry     beta= 0.70
     Davidson diagonalization with overlap

---- Real-time Memory Report at c_bands before calling an iterative solver
          1912 MiB given to the printing process from OS
             0 MiB allocation reported by mallinfo(arena+hblkhd)
         10519 MiB available memory on the node where the printing process lives
------------------
     ethr =  3.74E-03,  avg # of iterations =  4.2

     total cpu time spent up to now is      943.1 secs

     total energy              =   -7205.10133924 Ry
     estimated scf accuracy    <      27.00975544 Ry

     iteration #  6     ecut=    30.00 Ry     beta= 0.70
     Davidson diagonalization with overlap

---- Real-time Memory Report at c_bands before calling an iterative solver
          1915 MiB given to the printing process from OS
             0 MiB allocation reported by mallinfo(arena+hblkhd)
         10511 MiB available memory on the node where the printing process lives
------------------
     ethr =  3.13E-03,  avg # of iterations =  2.4

     total cpu time spent up to now is     1035.1 secs

     total energy              =   -7206.50760300 Ry
     estimated scf accuracy    <      11.70245902 Ry

     iteration #  7     ecut=    30.00 Ry     beta= 0.70
     Davidson diagonalization with overlap

---- Real-time Memory Report at c_bands before calling an iterative solver
          1918 MiB given to the printing process from OS
             0 MiB allocation reported by mallinfo(arena+hblkhd)
         10504 MiB available memory on the node where the printing process lives
------------------
     ethr =  1.35E-03,  avg # of iterations = 10.1

     total cpu time spent up to now is     1150.9 secs

     total energy              =   -7206.51844639 Ry
     estimated scf accuracy    <       8.48477486 Ry

     iteration #  8     ecut=    30.00 Ry     beta= 0.70
     Davidson diagonalization with overlap

---- Real-time Memory Report at c_bands before calling an iterative solver
          1921 MiB given to the printing process from OS
             0 MiB allocation reported by mallinfo(arena+hblkhd)
         10503 MiB available memory on the node where the printing process lives
------------------
     ethr =  9.82E-04,  avg # of iterations =  6.6

     total cpu time spent up to now is     1250.7 secs

     total energy              =   -7206.50671952 Ry
     estimated scf accuracy    <       5.97341139 Ry

     iteration #  9     ecut=    30.00 Ry     beta= 0.70
     Davidson diagonalization with overlap

---- Real-time Memory Report at c_bands before calling an iterative solver
          1924 MiB given to the printing process from OS
             0 MiB allocation reported by mallinfo(arena+hblkhd)
         10491 MiB available memory on the node where the printing process lives
------------------
     ethr =  6.91E-04,  avg # of iterations =  8.2

     total cpu time spent up to now is     1356.5 secs

     total energy              =   -7205.78824679 Ry
     estimated scf accuracy    <      14.46021788 Ry

     iteration # 10     ecut=    30.00 Ry     beta= 0.70
     Davidson diagonalization with overlap

---- Real-time Memory Report at c_bands before calling an iterative solver
          1927 MiB given to the printing process from OS
             0 MiB allocation reported by mallinfo(arena+hblkhd)
         10484 MiB available memory on the node where the printing process lives
------------------
     ethr =  6.91E-04,  avg # of iterations =  7.5

     total cpu time spent up to now is     1458.6 secs

     total energy              =   -7206.31224662 Ry
     estimated scf accuracy    <       5.93844015 Ry

     iteration # 11     ecut=    30.00 Ry     beta= 0.70
     Davidson diagonalization with overlap

---- Real-time Memory Report at c_bands before calling an iterative solver
          1929 MiB given to the printing process from OS
             0 MiB allocation reported by mallinfo(arena+hblkhd)
         10485 MiB available memory on the node where the printing process lives
------------------
