
     Program PWSCF v.7.2 starts on 23Jun2025 at  0:23:48 

     This program is part of the open-source Quantum ESPRESSO suite
     for quantum simulation of materials; please cite
         "P. Giannozzi et al., J. Phys.:Condens. Matter 21 395502 (2009);
         "P. Giannozzi et al., J. Phys.:Condens. Matter 29 465901 (2017);
         "P. Giannozzi et al., J. Chem. Phys. 152 154105 (2020);
          URL http://www.quantum-espresso.org", 
     in publications or presentations arising from this work. More details at
     http://www.quantum-espresso.org/quote

     Parallel version (MPI & OpenMP), running on       4 processor cores
     Number of MPI processes:                 2
     Threads/MPI process:                     2

     MPI processes distributed on     1 nodes
     13277 MiB available memory on the printing compute node when the environment starts

     Reading input from TiO2output.in

     Current dimensions of program PWSCF are:
     Max number of different atomic species (ntypx) = 10
     Max number of k-points (npk) =  40000
     Max angular momentum in pseudopotentials (lmaxx) =  4
     file O.upf: wavefunction(s)  2P renormalized
     Found identity + (  0.0000  0.0000  0.3333) symmetry
     This is a supercell, fractional translations are disabled
     Message from routine setup:
     using ibrav=0 with symmetry is DISCOURAGED, use correct ibrav instead

     R & G space division:  proc/nbgrp/npool/nimage =       2
     Subspace diagonalization in iterative solution of the eigenvalue problem:
     a serial algorithm will be used


     Parallelization info
     --------------------
     sticks:   dense  smooth     PW     G-vecs:    dense   smooth      PW
     Min        4314    2159    594               237894    84023   12245
     Max        4315    2160    595               237897    84026   12246
     Sum        8629    4319   1189               475791   168049   24491

     Using Slab Decomposition



     bravais-lattice index     =            0
     lattice parameter (alat)  =      17.3560  a.u.
     unit-cell volume          =    7575.6650 (a.u.)^3
     number of atoms/cell      =          108
     number of atomic types    =            2
     number of electrons       =       864.00
     number of Kohn-Sham states=          518
     kinetic-energy cutoff     =      30.0000  Ry
     charge density cutoff     =     240.0000  Ry
     scf convergence threshold =      1.0E-06
     mixing beta               =       0.7000
     number of iterations used =            8  plain     mixing
     Exchange-correlation= SLA  PW   PBX  PBC
                           (   1   4   3   4   0   0   0)

     celldm(1)=  17.356001  celldm(2)=   0.000000  celldm(3)=   0.000000
     celldm(4)=   0.000000  celldm(5)=   0.000000  celldm(6)=   0.000000

     crystal axes: (cart. coord. in units of alat)
               a(1) = (   1.000000   0.000000   0.000000 )  
               a(2) = (   0.000000   1.500000   0.000000 )  
               a(3) = (   0.000000   0.000000   0.966008 )  

     reciprocal axes: (cart. coord. in units 2 pi/alat)
               b(1) = (  1.000000  0.000000  0.000000 )  
               b(2) = (  0.000000  0.666667  0.000000 )  
               b(3) = (  0.000000  0.000000  1.035189 )  


     PseudoPot. # 1 for Ti read from file:
     ./Ti.upf
     MD5 check sum: 8e4df49b7f0d34bbd5052bf3f5ea0213
     Pseudo is Ultrasoft, Zval = 12.0
     Generated by new atomic code, or converted to UPF format
     Using radial grid of  851 points,  6 beta functions with: 
                l(1) =   0
                l(2) =   0
                l(3) =   1
                l(4) =   1
                l(5) =   2
                l(6) =   2
     Q(r) pseudized with  8 coefficients,  rinner =    1.000   1.000   1.000
                                                       1.000   1.000

     PseudoPot. # 2 for O  read from file:
     ./O.upf
     MD5 check sum: 0234752ac141de4415c5fc33072bef88
     Pseudo is Projector augmented-wave + core cor, Zval =  6.0
     Generated using "atomic" code by A. Dal Corso  v.5.0.99 svn rev. 10869
     Shape of augmentation charge: BESSEL
     Using radial grid of 1095 points,  4 beta functions with: 
                l(1) =   0
                l(2) =   0
                l(3) =   1
                l(4) =   1
     Q(r) pseudized with 0 coefficients 


     atomic species   valence    mass     pseudopotential
        Ti            12.00    47.86700     Ti( 1.00)
        O              6.00    15.99900     O ( 1.00)

      4 Sym. Ops., with inversion, found


                                    s                        frac. trans.

      isym =  1     identity                                     

 cryst.   s( 1) = (     1          0          0      )
                  (     0          1          0      )
                  (     0          0          1      )

 cart.    s( 1) = (  1.0000000  0.0000000  0.0000000 )
                  (  0.0000000  1.0000000  0.0000000 )
                  (  0.0000000  0.0000000  1.0000000 )


      isym =  2     180 deg rotation - cart. axis [0,0,1]        

 cryst.   s( 2) = (    -1          0          0      )
                  (     0         -1          0      )
                  (     0          0          1      )

 cart.    s( 2) = ( -1.0000000  0.0000000  0.0000000 )
                  (  0.0000000 -1.0000000  0.0000000 )
                  (  0.0000000  0.0000000  1.0000000 )


      isym =  3     inversion                                    

 cryst.   s( 3) = (    -1          0          0      )
                  (     0         -1          0      )
                  (     0          0         -1      )

 cart.    s( 3) = ( -1.0000000  0.0000000  0.0000000 )
                  (  0.0000000 -1.0000000  0.0000000 )
                  (  0.0000000  0.0000000 -1.0000000 )


      isym =  4     inv. 180 deg rotation - cart. axis [0,0,1]   

 cryst.   s( 4) = (     1          0          0      )
                  (     0          1          0      )
                  (     0          0         -1      )

 cart.    s( 4) = (  1.0000000  0.0000000  0.0000000 )
                  (  0.0000000  1.0000000  0.0000000 )
                  (  0.0000000  0.0000000 -1.0000000 )


   Cartesian axes

     site n.     atom                  positions (alat units)
         1           Ti  tau(   1) = (   0.0000000   0.0000000   0.0000000  )
         2           Ti  tau(   2) = (   0.2500000   0.2500000   0.1610013  )
         3           O   tau(   3) = (   0.1524800   0.1524800   0.0000000  )
         4           O   tau(   4) = (   0.3475200   0.3475200   0.0000000  )
         5           O   tau(   5) = (   0.4024800   0.0975200   0.1610013  )
         6           O   tau(   6) = (   0.0975200   0.4024800   0.1610013  )
         7           Ti  tau(   7) = (   0.0000000   0.0000000   0.3220025  )
         8           Ti  tau(   8) = (   0.2500000   0.2500000   0.4830038  )
         9           O   tau(   9) = (   0.1524800   0.1524800   0.3220025  )
        10           O   tau(  10) = (   0.3475200   0.3475200   0.3220025  )
        11           O   tau(  11) = (   0.4024800   0.0975200   0.4830038  )
        12           O   tau(  12) = (   0.0975200   0.4024800   0.4830038  )
        13           Ti  tau(  13) = (   0.0000000   0.0000000   0.6440051  )
        14           Ti  tau(  14) = (   0.2500000   0.2500000   0.8050063  )
        15           O   tau(  15) = (   0.1524800   0.1524800   0.6440051  )
        16           O   tau(  16) = (   0.3475200   0.3475200   0.6440051  )
        17           O   tau(  17) = (   0.4024800   0.0975200   0.8050063  )
        18           O   tau(  18) = (   0.0975200   0.4024800   0.8050063  )
        19           Ti  tau(  19) = (   0.0000000   0.5000000   0.0000000  )
        20           Ti  tau(  20) = (   0.2500000   0.7500000   0.1610013  )
        21           O   tau(  21) = (   0.1524800   0.6524800   0.0000000  )
        22           O   tau(  22) = (   0.3475200   0.8475200   0.0000000  )
        23           O   tau(  23) = (   0.4024800   0.5975200   0.1610013  )
        24           O   tau(  24) = (   0.0975200   0.9024800   0.1610013  )
        25           Ti  tau(  25) = (   0.0000000   0.5000000   0.3220025  )
        26           Ti  tau(  26) = (   0.2500000   0.7500000   0.4830038  )
        27           O   tau(  27) = (   0.1524800   0.6524800   0.3220025  )
        28           O   tau(  28) = (   0.3475200   0.8475200   0.3220025  )
        29           O   tau(  29) = (   0.4024800   0.5975200   0.4830038  )
        30           O   tau(  30) = (   0.0975200   0.9024800   0.4830038  )
        31           Ti  tau(  31) = (   0.0000000   0.5000000   0.6440051  )
        32           Ti  tau(  32) = (   0.2500000   0.7500000   0.8050063  )
        33           O   tau(  33) = (   0.1524800   0.6524800   0.6440051  )
        34           O   tau(  34) = (   0.3475200   0.8475200   0.6440051  )
        35           O   tau(  35) = (   0.4024800   0.5975200   0.8050063  )
        36           O   tau(  36) = (   0.0975200   0.9024800   0.8050063  )
        37           Ti  tau(  37) = (   0.0000000   1.0000000   0.0000000  )
        38           Ti  tau(  38) = (   0.2500000   1.2500000   0.1610013  )
        39           O   tau(  39) = (   0.1524800   1.1524800   0.0000000  )
        40           O   tau(  40) = (   0.3475200   1.3475200   0.0000000  )
        41           O   tau(  41) = (   0.4024800   1.0975200   0.1610013  )
        42           O   tau(  42) = (   0.0975200   1.4024800   0.1610013  )
        43           Ti  tau(  43) = (   0.0000000   1.0000000   0.3220025  )
        44           Ti  tau(  44) = (   0.2500000   1.2500000   0.4830038  )
        45           O   tau(  45) = (   0.1524800   1.1524800   0.3220025  )
        46           O   tau(  46) = (   0.3475200   1.3475200   0.3220025  )
        47           O   tau(  47) = (   0.4024800   1.0975200   0.4830038  )
        48           O   tau(  48) = (   0.0975200   1.4024800   0.4830038  )
        49           Ti  tau(  49) = (   0.0000000   1.0000000   0.6440051  )
        50           Ti  tau(  50) = (   0.2500000   1.2500000   0.8050063  )
        51           O   tau(  51) = (   0.1524800   1.1524800   0.6440051  )
        52           O   tau(  52) = (   0.3475200   1.3475200   0.6440051  )
        53           O   tau(  53) = (   0.4024800   1.0975200   0.8050063  )
        54           O   tau(  54) = (   0.0975200   1.4024800   0.8050063  )
        55           Ti  tau(  55) = (   0.5000000   0.0000000   0.0000000  )
        56           Ti  tau(  56) = (   0.7500000   0.2500000   0.1610013  )
        57           O   tau(  57) = (   0.6524800   0.1524800   0.0000000  )
        58           O   tau(  58) = (   0.8475200   0.3475200   0.0000000  )
        59           O   tau(  59) = (   0.9024800   0.0975200   0.1610013  )
        60           O   tau(  60) = (   0.5975200   0.4024800   0.1610013  )
        61           Ti  tau(  61) = (   0.5000000   0.0000000   0.3220025  )
        62           Ti  tau(  62) = (   0.7500000   0.2500000   0.4830038  )
        63           O   tau(  63) = (   0.6524800   0.1524800   0.3220025  )
        64           O   tau(  64) = (   0.8475200   0.3475200   0.3220025  )
        65           O   tau(  65) = (   0.9024800   0.0975200   0.4830038  )
        66           O   tau(  66) = (   0.5975200   0.4024800   0.4830038  )
        67           Ti  tau(  67) = (   0.5000000   0.0000000   0.6440051  )
        68           Ti  tau(  68) = (   0.7500000   0.2500000   0.8050063  )
        69           O   tau(  69) = (   0.6524800   0.1524800   0.6440051  )
        70           O   tau(  70) = (   0.8475200   0.3475200   0.6440051  )
        71           O   tau(  71) = (   0.9024800   0.0975200   0.8050063  )
        72           O   tau(  72) = (   0.5975200   0.4024800   0.8050063  )
        73           Ti  tau(  73) = (   0.5000000   0.5000000   0.0000000  )
        74           Ti  tau(  74) = (   0.7500000   0.7500000   0.1610013  )
        75           O   tau(  75) = (   0.6524800   0.6524800   0.0000000  )
        76           O   tau(  76) = (   0.8475200   0.8475200   0.0000000  )
        77           O   tau(  77) = (   0.9024800   0.5975200   0.1610013  )
        78           O   tau(  78) = (   0.5975200   0.9024800   0.1610013  )
        79           Ti  tau(  79) = (   0.5000000   0.5000000   0.3220025  )
        80           Ti  tau(  80) = (   0.7500000   0.7500000   0.4830038  )
        81           O   tau(  81) = (   0.6524800   0.6524800   0.3220025  )
        82           O   tau(  82) = (   0.8475200   0.8475200   0.3220025  )
        83           O   tau(  83) = (   0.9024800   0.5975200   0.4830038  )
        84           O   tau(  84) = (   0.5975200   0.9024800   0.4830038  )
        85           Ti  tau(  85) = (   0.5000000   0.5000000   0.6440051  )
        86           Ti  tau(  86) = (   0.7500000   0.7500000   0.8050063  )
        87           O   tau(  87) = (   0.6524800   0.6524800   0.6440051  )
        88           O   tau(  88) = (   0.8475200   0.8475200   0.6440051  )
        89           O   tau(  89) = (   0.9024800   0.5975200   0.8050063  )
        90           O   tau(  90) = (   0.5975200   0.9024800   0.8050063  )
        91           Ti  tau(  91) = (   0.5000000   1.0000000   0.0000000  )
        92           Ti  tau(  92) = (   0.7500000   1.2500000   0.1610013  )
        93           O   tau(  93) = (   0.6524800   1.1524800   0.0000000  )
        94           O   tau(  94) = (   0.8475200   1.3475200   0.0000000  )
        95           O   tau(  95) = (   0.9024800   1.0975200   0.1610013  )
        96           O   tau(  96) = (   0.5975200   1.4024800   0.1610013  )
        97           Ti  tau(  97) = (   0.5000000   1.0000000   0.3220025  )
        98           Ti  tau(  98) = (   0.7500000   1.2500000   0.4830038  )
        99           O   tau(  99) = (   0.6524800   1.1524800   0.3220025  )
       100           O   tau( 100) = (   0.8475200   1.3475200   0.3220025  )
       101           O   tau( 101) = (   0.9024800   1.0975200   0.4830038  )
       102           O   tau( 102) = (   0.5975200   1.4024800   0.4830038  )
       103           Ti  tau( 103) = (   0.5000000   1.0000000   0.6440051  )
       104           Ti  tau( 104) = (   0.7500000   1.2500000   0.8050063  )
       105           O   tau( 105) = (   0.6524800   1.1524800   0.6440051  )
       106           O   tau( 106) = (   0.8475200   1.3475200   0.6440051  )
       107           O   tau( 107) = (   0.9024800   1.0975200   0.8050063  )
       108           O   tau( 108) = (   0.5975200   1.4024800   0.8050063  )

   Crystallographic axes

     site n.     atom                  positions (cryst. coord.)
         1           Ti  tau(   1) = (  0.0000000  0.0000000  0.0000000  )
         2           Ti  tau(   2) = (  0.2500000  0.1666667  0.1666667  )
         3           O   tau(   3) = (  0.1524800  0.1016533  0.0000000  )
         4           O   tau(   4) = (  0.3475200  0.2316800  0.0000000  )
         5           O   tau(   5) = (  0.4024800  0.0650134  0.1666667  )
         6           O   tau(   6) = (  0.0975200  0.2683200  0.1666667  )
         7           Ti  tau(   7) = (  0.0000000  0.0000000  0.3333333  )
         8           Ti  tau(   8) = (  0.2500000  0.1666667  0.5000000  )
         9           O   tau(   9) = (  0.1524800  0.1016533  0.3333333  )
        10           O   tau(  10) = (  0.3475200  0.2316800  0.3333333  )
        11           O   tau(  11) = (  0.4024800  0.0650134  0.5000000  )
        12           O   tau(  12) = (  0.0975200  0.2683200  0.5000000  )
        13           Ti  tau(  13) = (  0.0000000  0.0000000  0.6666667  )
        14           Ti  tau(  14) = (  0.2500000  0.1666667  0.8333333  )
        15           O   tau(  15) = (  0.1524800  0.1016533  0.6666667  )
        16           O   tau(  16) = (  0.3475200  0.2316800  0.6666667  )
        17           O   tau(  17) = (  0.4024800  0.0650134  0.8333333  )
        18           O   tau(  18) = (  0.0975200  0.2683200  0.8333333  )
        19           Ti  tau(  19) = (  0.0000000  0.3333333  0.0000000  )
        20           Ti  tau(  20) = (  0.2500000  0.5000000  0.1666667  )
        21           O   tau(  21) = (  0.1524800  0.4349866  0.0000000  )
        22           O   tau(  22) = (  0.3475200  0.5650134  0.0000000  )
        23           O   tau(  23) = (  0.4024800  0.3983467  0.1666667  )
        24           O   tau(  24) = (  0.0975200  0.6016533  0.1666667  )
        25           Ti  tau(  25) = (  0.0000000  0.3333333  0.3333333  )
        26           Ti  tau(  26) = (  0.2500000  0.5000000  0.5000000  )
        27           O   tau(  27) = (  0.1524800  0.4349866  0.3333333  )
        28           O   tau(  28) = (  0.3475200  0.5650134  0.3333333  )
        29           O   tau(  29) = (  0.4024800  0.3983467  0.5000000  )
        30           O   tau(  30) = (  0.0975200  0.6016533  0.5000000  )
        31           Ti  tau(  31) = (  0.0000000  0.3333333  0.6666667  )
        32           Ti  tau(  32) = (  0.2500000  0.5000000  0.8333333  )
        33           O   tau(  33) = (  0.1524800  0.4349866  0.6666667  )
        34           O   tau(  34) = (  0.3475200  0.5650134  0.6666667  )
        35           O   tau(  35) = (  0.4024800  0.3983467  0.8333333  )
        36           O   tau(  36) = (  0.0975200  0.6016533  0.8333333  )
        37           Ti  tau(  37) = (  0.0000000  0.6666667  0.0000000  )
        38           Ti  tau(  38) = (  0.2500000  0.8333333  0.1666667  )
        39           O   tau(  39) = (  0.1524800  0.7683200  0.0000000  )
        40           O   tau(  40) = (  0.3475200  0.8983467  0.0000000  )
        41           O   tau(  41) = (  0.4024800  0.7316800  0.1666667  )
        42           O   tau(  42) = (  0.0975200  0.9349866  0.1666667  )
        43           Ti  tau(  43) = (  0.0000000  0.6666667  0.3333333  )
        44           Ti  tau(  44) = (  0.2500000  0.8333333  0.5000000  )
        45           O   tau(  45) = (  0.1524800  0.7683200  0.3333333  )
        46           O   tau(  46) = (  0.3475200  0.8983467  0.3333333  )
        47           O   tau(  47) = (  0.4024800  0.7316800  0.5000000  )
        48           O   tau(  48) = (  0.0975200  0.9349866  0.5000000  )
        49           Ti  tau(  49) = (  0.0000000  0.6666667  0.6666667  )
        50           Ti  tau(  50) = (  0.2500000  0.8333333  0.8333333  )
        51           O   tau(  51) = (  0.1524800  0.7683200  0.6666667  )
        52           O   tau(  52) = (  0.3475200  0.8983467  0.6666667  )
        53           O   tau(  53) = (  0.4024800  0.7316800  0.8333333  )
        54           O   tau(  54) = (  0.0975200  0.9349866  0.8333333  )
        55           Ti  tau(  55) = (  0.5000000  0.0000000  0.0000000  )
        56           Ti  tau(  56) = (  0.7500000  0.1666667  0.1666667  )
        57           O   tau(  57) = (  0.6524800  0.1016533  0.0000000  )
        58           O   tau(  58) = (  0.8475200  0.2316800  0.0000000  )
        59           O   tau(  59) = (  0.9024800  0.0650134  0.1666667  )
        60           O   tau(  60) = (  0.5975200  0.2683200  0.1666667  )
        61           Ti  tau(  61) = (  0.5000000  0.0000000  0.3333333  )
        62           Ti  tau(  62) = (  0.7500000  0.1666667  0.5000000  )
        63           O   tau(  63) = (  0.6524800  0.1016533  0.3333333  )
        64           O   tau(  64) = (  0.8475200  0.2316800  0.3333333  )
        65           O   tau(  65) = (  0.9024800  0.0650134  0.5000000  )
        66           O   tau(  66) = (  0.5975200  0.2683200  0.5000000  )
        67           Ti  tau(  67) = (  0.5000000  0.0000000  0.6666667  )
        68           Ti  tau(  68) = (  0.7500000  0.1666667  0.8333333  )
        69           O   tau(  69) = (  0.6524800  0.1016533  0.6666667  )
        70           O   tau(  70) = (  0.8475200  0.2316800  0.6666667  )
        71           O   tau(  71) = (  0.9024800  0.0650134  0.8333333  )
        72           O   tau(  72) = (  0.5975200  0.2683200  0.8333333  )
        73           Ti  tau(  73) = (  0.5000000  0.3333333  0.0000000  )
        74           Ti  tau(  74) = (  0.7500000  0.5000000  0.1666667  )
        75           O   tau(  75) = (  0.6524800  0.4349866  0.0000000  )
        76           O   tau(  76) = (  0.8475200  0.5650134  0.0000000  )
        77           O   tau(  77) = (  0.9024800  0.3983467  0.1666667  )
        78           O   tau(  78) = (  0.5975200  0.6016533  0.1666667  )
        79           Ti  tau(  79) = (  0.5000000  0.3333333  0.3333333  )
        80           Ti  tau(  80) = (  0.7500000  0.5000000  0.5000000  )
        81           O   tau(  81) = (  0.6524800  0.4349866  0.3333333  )
        82           O   tau(  82) = (  0.8475200  0.5650134  0.3333333  )
        83           O   tau(  83) = (  0.9024800  0.3983467  0.5000000  )
        84           O   tau(  84) = (  0.5975200  0.6016533  0.5000000  )
        85           Ti  tau(  85) = (  0.5000000  0.3333333  0.6666667  )
        86           Ti  tau(  86) = (  0.7500000  0.5000000  0.8333333  )
        87           O   tau(  87) = (  0.6524800  0.4349866  0.6666667  )
        88           O   tau(  88) = (  0.8475200  0.5650134  0.6666667  )
        89           O   tau(  89) = (  0.9024800  0.3983467  0.8333333  )
        90           O   tau(  90) = (  0.5975200  0.6016533  0.8333333  )
        91           Ti  tau(  91) = (  0.5000000  0.6666667  0.0000000  )
        92           Ti  tau(  92) = (  0.7500000  0.8333333  0.1666667  )
        93           O   tau(  93) = (  0.6524800  0.7683200  0.0000000  )
        94           O   tau(  94) = (  0.8475200  0.8983467  0.0000000  )
        95           O   tau(  95) = (  0.9024800  0.7316800  0.1666667  )
        96           O   tau(  96) = (  0.5975200  0.9349866  0.1666667  )
        97           Ti  tau(  97) = (  0.5000000  0.6666667  0.3333333  )
        98           Ti  tau(  98) = (  0.7500000  0.8333333  0.5000000  )
        99           O   tau(  99) = (  0.6524800  0.7683200  0.3333333  )
       100           O   tau( 100) = (  0.8475200  0.8983467  0.3333333  )
       101           O   tau( 101) = (  0.9024800  0.7316800  0.5000000  )
       102           O   tau( 102) = (  0.5975200  0.9349866  0.5000000  )
       103           Ti  tau( 103) = (  0.5000000  0.6666667  0.6666667  )
       104           Ti  tau( 104) = (  0.7500000  0.8333333  0.8333333  )
       105           O   tau( 105) = (  0.6524800  0.7683200  0.6666667  )
       106           O   tau( 106) = (  0.8475200  0.8983467  0.6666667  )
       107           O   tau( 107) = (  0.9024800  0.7316800  0.8333333  )
       108           O   tau( 108) = (  0.5975200  0.9349866  0.8333333  )

     number of k points=     8  Marzari-Vanderbilt smearing, width (Ry)=  0.0100
                       cart. coord. in units 2pi/alat
        k(    1) = (   0.0000000   0.0000000   0.0000000), wk =   0.2500000
        k(    2) = (   0.0000000   0.0000000  -0.5175943), wk =   0.2500000
        k(    3) = (   0.0000000  -0.3333333   0.0000000), wk =   0.2500000
        k(    4) = (   0.0000000  -0.3333333  -0.5175943), wk =   0.2500000
        k(    5) = (  -0.5000000   0.0000000   0.0000000), wk =   0.2500000
        k(    6) = (  -0.5000000   0.0000000  -0.5175943), wk =   0.2500000
        k(    7) = (  -0.5000000  -0.3333333   0.0000000), wk =   0.2500000
        k(    8) = (  -0.5000000  -0.3333333  -0.5175943), wk =   0.2500000

                       cryst. coord.
        k(    1) = (   0.0000000   0.0000000   0.0000000), wk =   0.2500000
        k(    2) = (   0.0000000   0.0000000  -0.5000000), wk =   0.2500000
        k(    3) = (   0.0000000  -0.5000000   0.0000000), wk =   0.2500000
        k(    4) = (   0.0000000  -0.5000000  -0.5000000), wk =   0.2500000
        k(    5) = (  -0.5000000   0.0000000   0.0000000), wk =   0.2500000
        k(    6) = (  -0.5000000   0.0000000  -0.5000000), wk =   0.2500000
        k(    7) = (  -0.5000000  -0.5000000   0.0000000), wk =   0.2500000
        k(    8) = (  -0.5000000  -0.5000000  -0.5000000), wk =   0.2500000

     Dense  grid:   475791 G-vectors     FFT dimensions: (  90, 135,  90)

     Smooth grid:   168049 G-vectors     FFT dimensions: (  64,  96,  60)

     Dynamical RAM for                 wfc:      83.07 MB

     Dynamical RAM for     wfc (w. buffer):     747.64 MB

     Dynamical RAM for           str. fact:       7.26 MB

     Dynamical RAM for           local pot:       0.00 MB

     Dynamical RAM for          nlocal pot:     196.29 MB

     Dynamical RAM for                qrad:       2.49 MB

     Dynamical RAM for          rho,v,vnew:      23.40 MB

     Dynamical RAM for               rhoin:       7.80 MB

     Dynamical RAM for            rho*nmix:      58.08 MB

     Dynamical RAM for           G-vectors:      14.25 MB

     Dynamical RAM for          h,s,v(r/c):      49.13 MB

     Dynamical RAM for          <psi|beta>:       9.67 MB

     Dynamical RAM for                 psi:     166.14 MB

     Dynamical RAM for                hpsi:     166.14 MB

     Dynamical RAM for                spsi:     166.14 MB

     Dynamical RAM for      wfcinit/wfcrot:     217.46 MB

     Dynamical RAM for           addusdens:     936.55 MB

     Estimated static dynamical RAM per process >       1.01 GB

     Estimated max dynamical RAM per process >       1.98 GB

     Estimated total dynamical RAM >       3.96 GB

     Check: negative core charge=   -0.000018

     Initial potential from superposition of free atoms

     starting charge     827.9983, renormalised to     864.0000
     Starting wfcs are  648 randomized atomic wfcs
     Checking if some PAW data can be deallocated... 

     total cpu time spent up to now is       38.3 secs

     Self-consistent Calculation

     iteration #  1     ecut=    30.00 Ry     beta= 0.70
     Davidson diagonalization with overlap

---- Real-time Memory Report at c_bands before calling an iterative solver
          1245 MiB given to the printing process from OS
             0 MiB allocation reported by mallinfo(arena+hblkhd)
         11143 MiB available memory on the node where the printing process lives
------------------
     ethr =  1.00E-02,  avg # of iterations =  2.6

     total cpu time spent up to now is      140.5 secs

     total energy              =   -7195.47261014 Ry
     estimated scf accuracy    <      21.78132514 Ry

     iteration #  2     ecut=    30.00 Ry     beta= 0.70
     Davidson diagonalization with overlap

---- Real-time Memory Report at c_bands before calling an iterative solver
          1920 MiB given to the printing process from OS
             0 MiB allocation reported by mallinfo(arena+hblkhd)
         11084 MiB available memory on the node where the printing process lives
------------------
     ethr =  2.52E-03,  avg # of iterations =  7.8

     total cpu time spent up to now is      336.8 secs

     total energy              =   -7147.83096913 Ry
     estimated scf accuracy    <     441.50679936 Ry

     iteration #  3     ecut=    30.00 Ry     beta= 0.70
     Davidson diagonalization with overlap

---- Real-time Memory Report at c_bands before calling an iterative solver
          1923 MiB given to the printing process from OS
             0 MiB allocation reported by mallinfo(arena+hblkhd)
         11078 MiB available memory on the node where the printing process lives
------------------
     ethr =  2.52E-03,  avg # of iterations =  5.6

     total cpu time spent up to now is      509.6 secs

     total energy              =   -7208.79829515 Ry
     estimated scf accuracy    <       5.46939424 Ry

     iteration #  4     ecut=    30.00 Ry     beta= 0.70
     Davidson diagonalization with overlap

---- Real-time Memory Report at c_bands before calling an iterative solver
          1926 MiB given to the printing process from OS
             0 MiB allocation reported by mallinfo(arena+hblkhd)
         11074 MiB available memory on the node where the printing process lives
------------------
     ethr =  6.33E-04,  avg # of iterations =  1.4

     total cpu time spent up to now is      587.5 secs

     total energy              =   -7208.13653184 Ry
     estimated scf accuracy    <       3.27870574 Ry

     iteration #  5     ecut=    30.00 Ry     beta= 0.70
     Davidson diagonalization with overlap

---- Real-time Memory Report at c_bands before calling an iterative solver
          1929 MiB given to the printing process from OS
             0 MiB allocation reported by mallinfo(arena+hblkhd)
         11067 MiB available memory on the node where the printing process lives
------------------
     ethr =  3.79E-04,  avg # of iterations =  2.6

     total cpu time spent up to now is      682.0 secs

     total energy              =   -7208.28040976 Ry
     estimated scf accuracy    <       0.78134547 Ry

     iteration #  6     ecut=    30.00 Ry     beta= 0.70
     Davidson diagonalization with overlap

---- Real-time Memory Report at c_bands before calling an iterative solver
          1932 MiB given to the printing process from OS
             0 MiB allocation reported by mallinfo(arena+hblkhd)
         11061 MiB available memory on the node where the printing process lives
------------------
     ethr =  9.04E-05,  avg # of iterations =  4.0

     total cpu time spent up to now is      780.2 secs

     total energy              =   -7208.27715109 Ry
     estimated scf accuracy    <       0.28227992 Ry

     iteration #  7     ecut=    30.00 Ry     beta= 0.70
     Davidson diagonalization with overlap

---- Real-time Memory Report at c_bands before calling an iterative solver
          1934 MiB given to the printing process from OS
             0 MiB allocation reported by mallinfo(arena+hblkhd)
         11055 MiB available memory on the node where the printing process lives
------------------
     ethr =  3.27E-05,  avg # of iterations =  9.5

     total cpu time spent up to now is      909.2 secs

     total energy              =   -7208.34584499 Ry
     estimated scf accuracy    <       0.01057371 Ry

     iteration #  8     ecut=    30.00 Ry     beta= 0.70
     Davidson diagonalization with overlap

---- Real-time Memory Report at c_bands before calling an iterative solver
          1937 MiB given to the printing process from OS
             0 MiB allocation reported by mallinfo(arena+hblkhd)
         11049 MiB available memory on the node where the printing process lives
------------------
     c_bands:  2 eigenvalues not converged
     ethr =  1.22E-06,  avg # of iterations = 10.4

     total cpu time spent up to now is     1064.1 secs

     total energy              =   -7208.34670384 Ry
     estimated scf accuracy    <       0.00754718 Ry

     iteration #  9     ecut=    30.00 Ry     beta= 0.70
     Davidson diagonalization with overlap

---- Real-time Memory Report at c_bands before calling an iterative solver
          1940 MiB given to the printing process from OS
             0 MiB allocation reported by mallinfo(arena+hblkhd)
         11044 MiB available memory on the node where the printing process lives
------------------
     ethr =  8.74E-07,  avg # of iterations =  4.2

     total cpu time spent up to now is     1178.8 secs

     total energy              =   -7208.34770968 Ry
     estimated scf accuracy    <       0.00399120 Ry

     iteration # 10     ecut=    30.00 Ry     beta= 0.70
     Davidson diagonalization with overlap

---- Real-time Memory Report at c_bands before calling an iterative solver
          1943 MiB given to the printing process from OS
             0 MiB allocation reported by mallinfo(arena+hblkhd)
         11037 MiB available memory on the node where the printing process lives
------------------
     ethr =  4.62E-07,  avg # of iterations =  2.0

     total cpu time spent up to now is     1272.9 secs

     total energy              =   -7208.34739316 Ry
     estimated scf accuracy    <       0.00119874 Ry

     iteration # 11     ecut=    30.00 Ry     beta= 0.70
     Davidson diagonalization with overlap

---- Real-time Memory Report at c_bands before calling an iterative solver
          1945 MiB given to the printing process from OS
             0 MiB allocation reported by mallinfo(arena+hblkhd)
         11037 MiB available memory on the node where the printing process lives
------------------
     ethr =  1.39E-07,  avg # of iterations =  2.6

     total cpu time spent up to now is     1380.4 secs

     total energy              =   -7208.34771008 Ry
     estimated scf accuracy    <       0.00024457 Ry

     iteration # 12     ecut=    30.00 Ry     beta= 0.70
     Davidson diagonalization with overlap

---- Real-time Memory Report at c_bands before calling an iterative solver
          1945 MiB given to the printing process from OS
             0 MiB allocation reported by mallinfo(arena+hblkhd)
         11034 MiB available memory on the node where the printing process lives
------------------
     ethr =  2.83E-08,  avg # of iterations =  4.6

     total cpu time spent up to now is     1481.6 secs

     total energy              =   -7208.34772135 Ry
     estimated scf accuracy    <       0.00009806 Ry

     iteration # 13     ecut=    30.00 Ry     beta= 0.70
     Davidson diagonalization with overlap

---- Real-time Memory Report at c_bands before calling an iterative solver
          1945 MiB given to the printing process from OS
             0 MiB allocation reported by mallinfo(arena+hblkhd)
         11028 MiB available memory on the node where the printing process lives
------------------
     ethr =  1.13E-08,  avg # of iterations =  4.9

     total cpu time spent up to now is     1588.0 secs

     total energy              =   -7208.34773166 Ry
     estimated scf accuracy    <       0.00001331 Ry

     iteration # 14     ecut=    30.00 Ry     beta= 0.70
     Davidson diagonalization with overlap

---- Real-time Memory Report at c_bands before calling an iterative solver
          1945 MiB given to the printing process from OS
             0 MiB allocation reported by mallinfo(arena+hblkhd)
         11028 MiB available memory on the node where the printing process lives
------------------
     ethr =  1.54E-09,  avg # of iterations =  5.5

     total cpu time spent up to now is     1716.6 secs

     total energy              =   -7208.34773630 Ry
     estimated scf accuracy    <       0.00000195 Ry

     iteration # 15     ecut=    30.00 Ry     beta= 0.70
     Davidson diagonalization with overlap

---- Real-time Memory Report at c_bands before calling an iterative solver
          1945 MiB given to the printing process from OS
             0 MiB allocation reported by mallinfo(arena+hblkhd)
         11035 MiB available memory on the node where the printing process lives
------------------
     ethr =  2.26E-10,  avg # of iterations =  2.2

     total cpu time spent up to now is     1816.7 secs

     End of self-consistent calculation

          k = 0.0000 0.0000 0.0000 ( 20947 PWs)   bands (ev):

   -47.7451 -47.7409 -47.7409 -47.7367 -47.7366 -47.7366 -47.7365 -47.7365
   -47.7363 -47.7323 -47.7322 -47.7282 -47.7104 -47.7103 -47.7083 -47.7083
   -47.7082 -47.7082 -47.7062 -47.7061 -47.7061 -47.7060 -47.7060 -47.7060
   -47.7060 -47.7059 -47.7059 -47.7059 -47.7058 -47.7057 -47.7039 -47.7039
   -47.7039 -47.7038 -47.7017 -47.7017 -24.1876 -24.1876 -24.1876 -24.1876
   -24.1871 -24.1870 -24.1870 -24.1869 -24.1800 -24.1799 -24.1797 -24.1797
   -24.1796 -24.1796 -24.1762 -24.1762 -24.1761 -24.1761 -24.1760 -24.1760
   -24.1760 -24.1759 -24.1657 -24.1657 -24.0572 -24.0571 -24.0570 -24.0570
   -24.0566 -24.0565 -24.0226 -24.0226 -24.0210 -24.0210 -24.0010 -24.0010
   -23.9584 -23.9583 -23.9583 -23.9583 -23.9568 -23.9568 -23.9568 -23.9567
   -23.9567 -23.9567 -23.9566 -23.9566 -23.9436 -23.9436 -23.9365 -23.9365
   -23.9365 -23.9365 -23.9309 -23.9308 -23.9308 -23.9308 -23.9245 -23.9244
   -23.9218 -23.9218 -23.9189 -23.9189 -23.9188 -23.9188 -23.9043 -23.9043
   -23.9042 -23.9042 -23.8953 -23.8953 -23.8953 -23.8952 -23.8898 -23.8898
   -23.8898 -23.8897 -23.8890 -23.8890 -23.8889 -23.8889 -23.8846 -23.8845
   -23.8778 -23.8778 -23.8778 -23.8778 -23.8777 -23.8777 -23.8777 -23.8777
   -23.8772 -23.8772 -23.8772 -23.8771 -23.8451 -23.8350 -23.8350 -23.8265
   -23.8264 -23.8262 -23.8262 -23.8262 -23.8260 -23.8172 -23.8172 -23.8085
    -9.1866  -8.8212  -8.8211  -8.5118  -8.5117  -8.5117  -8.5117  -8.4535
    -8.4535  -8.2703  -8.2703  -8.1680  -8.1680  -8.1679  -8.1679  -8.1403
    -8.1403  -8.0587  -8.0587  -8.0586  -8.0586  -8.0365  -7.9404  -7.9404
    -7.9403  -7.9403  -7.9403  -7.9403  -7.9402  -7.9402  -7.9270  -7.9270
    -7.9270  -7.9269  -7.6950  -7.6949  -7.6949  -7.6949  -7.6949  -7.6948
    -7.6948  -7.6948  -7.6834  -7.6834  -7.6833  -7.6833  -7.6393  -7.6392
    -7.6305  -7.6305  -7.6304  -7.6304  -7.5824  -7.5823  -7.5823  -7.5823
    -7.5547  -7.5547  -7.5547  -7.5547  -7.5378  -7.5378  -7.5267  -7.5267
    -7.4452  -7.4452  -7.4451  -7.4451  -7.4242  -7.4241  -7.2918  -7.2918
     3.3983   3.7439   3.7439   3.7439   3.7439   3.7805   3.9680   3.9680
     4.1520   4.1521   4.2540   4.2541   4.2665   4.4331   4.4331   4.4332
     4.4332   4.4332   4.4332   4.4332   4.4333   4.5808   4.5808   4.5957
     4.5957   4.5957   4.5957   4.6133   4.6133   4.6134   4.6134   4.6325
     4.6325   4.6795   4.6795   4.6795   4.6796   4.6796   4.6796   4.6796
     4.6796   4.7536   4.7536   4.7537   4.7537   4.7775   4.7775   4.7775
     4.7775   4.9445   4.9445   4.9445   4.9445   5.0133   5.0133   5.1056
     5.1057   5.1057   5.1057   5.1540   5.1541   5.1541   5.1541   5.2961
     5.2961   5.2961   5.2962   5.3384   5.3385   5.3806   5.3807   5.3966
     5.3967   5.4015   5.4016   5.4133   5.4133   5.4133   5.4133   5.4174
     5.4174   5.4820   5.4820   5.6653   5.6654   5.6654   5.6654   5.7886
     5.7886   5.7887   5.7887   5.7904   5.7905   5.7905   5.7905   5.7905
     5.7905   5.7906   5.7906   5.9277   5.9278   6.0409   6.0409   6.0410
     6.0410   6.0645   6.0645   6.1400   6.1400   6.1424   6.1424   6.2770
     6.2770   6.2770   6.2770   6.3552   6.3553   6.4852   6.4852   6.4852
     6.4852   6.6362   6.6364   6.8701   6.8702   6.8702   6.8702   6.8702
     6.8702   6.8703   6.8703   6.9432   6.9432   6.9433   6.9433   7.0110
     7.0110   7.0110   7.0111   7.1027   7.1027   7.1028   7.1028   7.1226
     7.1227   7.1227   7.1227   7.1540   7.1540   7.2220   7.3129   7.3129
     7.3270   7.3270   7.3271   7.3271   7.4641   7.4641   7.4641   7.4642
     7.4642   7.4642   7.4643   7.4643   7.4692   7.4692   7.4692   7.4692
     7.5185   7.5185   7.5884   7.5884   7.5885   7.5885   7.7745   7.7745
     7.7745   7.7746   7.7816   7.7816   7.7816   7.7816   7.8805   7.8805
     8.0030   8.0030   8.0030   8.0031   8.1552   8.1553   8.1553   8.1553
     8.1913   8.1913   8.1919   8.1919   8.1919   8.1919   8.1920   8.1920
     8.1920   8.1920   8.2340   8.2341   8.3948   8.3948   8.3948   8.3948
     8.4090   8.4184   8.4184   8.6784   8.6785   8.7598   8.7599   9.1622
    11.0546  11.2550  11.2551  11.2551  11.2551  11.2970  11.2971  11.2972
    11.2973  11.3684  11.4598  11.4599  11.4600  11.4601  11.5051  11.5051
    11.5291  11.5291  11.5879  11.6796  11.6797  11.7385  11.7387  11.7712
    11.7712  11.8088  11.8088  11.8089  11.8089  11.8090  11.8090  11.8091
    11.8091  11.8244  11.8245  11.8245  11.8247  11.8941  11.8941  11.8941
    11.8941  11.9070  11.9070  12.0366  12.0367  12.1067  12.1067  12.2023
    12.2025  12.2118  12.2118  12.2118  12.2118  12.2119  12.2119  12.2120
    12.2121  12.2310  12.2310  12.2729  12.2730  12.2730  12.2730  12.3270
    12.3270  12.4267  12.4267  12.4267  12.4267  12.4312  12.4313  12.4313
    12.4314  12.5782  12.5783  12.5783  12.5784  12.5784  12.5785  12.5785
    12.5785  12.6003  12.6004  12.6004  12.6005  12.7589

     occupation numbers 
     1.0000   1.0000   1.0000   1.0000   1.0000   1.0000   1.0000   1.0000
     1.0000   1.0000   1.0000   1.0000   1.0000   1.0000   1.0000   1.0000
     1.0000   1.0000   1.0000   1.0000   1.0000   1.0000   1.0000   1.0000
     1.0000   1.0000   1.0000   1.0000   1.0000   1.0000   1.0000   1.0000
     1.0000   1.0000   1.0000   1.0000   1.0000   1.0000   1.0000   1.0000
     1.0000   1.0000   1.0000   1.0000   1.0000   1.0000   1.0000   1.0000
     1.0000   1.0000   1.0000   1.0000   1.0000   1.0000   1.0000   1.0000
     1.0000   1.0000   1.0000   1.0000   1.0000   1.0000   1.0000   1.0000
     1.0000   1.0000   1.0000   1.0000   1.0000   1.0000   1.0000   1.0000
     1.0000   1.0000   1.0000   1.0000   1.0000   1.0000   1.0000   1.0000
     1.0000   1.0000   1.0000   1.0000   1.0000   1.0000   1.0000   1.0000
     1.0000   1.0000   1.0000   1.0000   1.0000   1.0000   1.0000   1.0000
     1.0000   1.0000   1.0000   1.0000   1.0000   1.0000   1.0000   1.0000
     1.0000   1.0000   1.0000   1.0000   1.0000   1.0000   1.0000   1.0000
     1.0000   1.0000   1.0000   1.0000   1.0000   1.0000   1.0000   1.0000
     1.0000   1.0000   1.0000   1.0000   1.0000   1.0000   1.0000   1.0000
     1.0000   1.0000   1.0000   1.0000   1.0000   1.0000   1.0000   1.0000
     1.0000   1.0000   1.0000   1.0000   1.0000   1.0000   1.0000   1.0000
     1.0000   1.0000   1.0000   1.0000   1.0000   1.0000   1.0000   1.0000
     1.0000   1.0000   1.0000   1.0000   1.0000   1.0000   1.0000   1.0000
     1.0000   1.0000   1.0000   1.0000   1.0000   1.0000   1.0000   1.0000
     1.0000   1.0000   1.0000   1.0000   1.0000   1.0000   1.0000   1.0000
     1.0000   1.0000   1.0000   1.0000   1.0000   1.0000   1.0000   1.0000
     1.0000   1.0000   1.0000   1.0000   1.0000   1.0000   1.0000   1.0000
     1.0000   1.0000   1.0000   1.0000   1.0000   1.0000   1.0000   1.0000
     1.0000   1.0000   1.0000   1.0000   1.0000   1.0000   1.0000   1.0000
     1.0000   1.0000   1.0000   1.0000   1.0000   1.0000   1.0000   1.0000
     1.0000   1.0000   1.0000   1.0000   1.0000   1.0000   1.0000   1.0000
     1.0000   1.0000   1.0000   1.0000   1.0000   1.0000   1.0000   1.0000
     1.0000   1.0000   1.0000   1.0000   1.0000   1.0000   1.0000   1.0000
     1.0000   1.0000   1.0000   1.0000   1.0000   1.0000   1.0000   1.0000
     1.0000   1.0000   1.0000   1.0000   1.0000   1.0000   1.0000   1.0000
     1.0000   1.0000   1.0000   1.0000   1.0000   1.0000   1.0000   1.0000
     1.0000   1.0000   1.0000   1.0000   1.0000   1.0000   1.0000   1.0000
     1.0000   1.0000   1.0000   1.0000   1.0000   1.0000   1.0000   1.0000
     1.0000   1.0000   1.0000   1.0000   1.0000   1.0000   1.0000   1.0000
     1.0000   1.0000   1.0000   1.0000   1.0000   1.0000   1.0000   1.0000
     1.0000   1.0000   1.0000   1.0000   1.0000   1.0000   1.0000   1.0000
     1.0000   1.0000   1.0000   1.0000   1.0000   1.0000   1.0000   1.0000
     1.0000   1.0000   1.0000   1.0000   1.0000   1.0000   1.0000   1.0000
     1.0000   1.0000   1.0000   1.0000   1.0000   1.0000   1.0000   1.0000
     1.0000   1.0000   1.0000   1.0000   1.0000   1.0000   1.0000   1.0000
     1.0000   1.0000   1.0000   1.0000   1.0000   1.0000   1.0000   1.0000
     1.0000   1.0000   1.0000   1.0000   1.0000   1.0000   1.0000   1.0000
     1.0000   1.0000   1.0000   1.0000   1.0000   1.0000   1.0000   1.0000
     1.0000   1.0000   1.0000   1.0000   1.0000   1.0000   1.0000   1.0000
     1.0000   1.0000   1.0000   1.0000   1.0000   1.0000   1.0000   1.0000
     1.0000   1.0000   1.0000   1.0000   1.0000   1.0000   1.0000   1.0000
     1.0000   1.0000   1.0000   1.0000   1.0000   1.0000   1.0000   1.0000
     1.0000   1.0000   1.0000   1.0000   1.0000   1.0000   1.0000   1.0000
     1.0000   1.0000   1.0000   1.0000   1.0000   1.0000   1.0000   1.0000
     1.0000   1.0000   1.0000   1.0000   1.0000   1.0000   1.0000   1.0000
     1.0000   1.0000   1.0000   1.0000   1.0000   1.0000   1.0000   1.0000
     1.0000   1.0000   1.0000   1.0000   1.0000   1.0000   1.0000   1.0000
     0.0000   0.0000   0.0000   0.0000   0.0000   0.0000   0.0000   0.0000
     0.0000   0.0000   0.0000   0.0000   0.0000   0.0000   0.0000   0.0000
     0.0000   0.0000   0.0000   0.0000   0.0000   0.0000   0.0000   0.0000
     0.0000   0.0000   0.0000   0.0000   0.0000   0.0000   0.0000   0.0000
     0.0000   0.0000   0.0000   0.0000   0.0000   0.0000   0.0000   0.0000
     0.0000   0.0000   0.0000   0.0000   0.0000   0.0000   0.0000   0.0000
     0.0000   0.0000   0.0000   0.0000   0.0000   0.0000   0.0000   0.0000
     0.0000   0.0000   0.0000   0.0000   0.0000   0.0000   0.0000   0.0000
     0.0000   0.0000   0.0000   0.0000   0.0000   0.0000   0.0000   0.0000
     0.0000   0.0000   0.0000   0.0000   0.0000   0.0000   0.0000   0.0000
     0.0000   0.0000   0.0000   0.0000   0.0000   0.0000

          k = 0.0000 0.0000-0.5176 ( 21006 PWs)   bands (ev):

   -47.7340 -47.7339 -47.7302 -47.7302 -47.7301 -47.7301 -47.7266 -47.7265
   -47.7265 -47.7265 -47.7265 -47.7264 -47.7264 -47.7264 -47.7263 -47.7263
   -47.7262 -47.7261 -47.7228 -47.7228 -47.7227 -47.7227 -47.7191 -47.7190
   -47.6961 -47.6961 -47.6960 -47.6959 -47.6959 -47.6959 -47.6958 -47.6957
   -47.6957 -47.6955 -47.6955 -47.6954 -24.2957 -24.2957 -24.2933 -24.2933
   -24.2932 -24.2931 -24.2871 -24.2870 -24.2870 -24.2869 -24.2850 -24.2849
   -24.0282 -24.0282 -24.0281 -24.0281 -24.0281 -24.0281 -24.0280 -24.0280
   -24.0261 -24.0261 -24.0260 -24.0259 -24.0077 -24.0077 -24.0076 -24.0076
   -23.9945 -23.9945 -23.9944 -23.9944 -23.9849 -23.9848 -23.9848 -23.9848
   -23.9648 -23.9648 -23.9647 -23.9647 -23.9592 -23.9592 -23.9591 -23.9591
   -23.9581 -23.9580 -23.9499 -23.9499 -23.9498 -23.9498 -23.9461 -23.9460
   -23.9460 -23.9460 -23.9459 -23.9459 -23.9459 -23.9458 -23.9296 -23.9295
   -23.9086 -23.9085 -23.9070 -23.9069 -23.9068 -23.9068 -23.9041 -23.9041
   -23.9041 -23.9040 -23.9037 -23.9037 -23.9037 -23.9037 -23.9013 -23.9012
   -23.9011 -23.9011 -23.8993 -23.8993 -23.8927 -23.8927 -23.8926 -23.8926
   -23.8915 -23.8915 -23.8914 -23.8914 -23.8913 -23.8912 -23.8901 -23.8901
   -23.8900 -23.8900 -23.8892 -23.8891 -23.8810 -23.8810 -23.8809 -23.8809
   -23.8809 -23.8809 -23.8808 -23.8808 -23.8806 -23.8805 -23.8805 -23.8804
    -8.9069  -8.9068  -8.5844  -8.5843  -8.5843  -8.5842  -8.2941  -8.2941
    -8.2940  -8.2940  -8.2940  -8.2940  -8.2939  -8.2939  -8.2530  -8.2530
    -8.2529  -8.2529  -8.1215  -8.1215  -8.0766  -8.0766  -8.0766  -8.0765
    -7.9794  -7.9793  -7.9793  -7.9793  -7.9498  -7.9498  -7.9497  -7.9497
    -7.8823  -7.8822  -7.8127  -7.8126  -7.7304  -7.7304  -7.6549  -7.6549
    -7.6548  -7.6548  -7.6184  -7.6184  -7.6183  -7.6183  -7.5591  -7.5591
    -7.5591  -7.5590  -7.5590  -7.5590  -7.5589  -7.5589  -7.5399  -7.5398
    -7.5398  -7.5398  -7.5280  -7.5279  -7.5279  -7.5278  -7.4469  -7.4468
    -7.4468  -7.4468  -7.4231  -7.4231  -7.4230  -7.4230  -7.3954  -7.3953
     3.7751   3.7752   4.0596   4.0596   4.0597   4.0597   4.0597   4.0598
     4.0598   4.0598   4.0726   4.0727   4.1154   4.1154   4.2485   4.2485
     4.2486   4.2486   4.2810   4.2810   4.2811   4.2812   4.2823   4.2823
     4.2824   4.2824   4.4824   4.4824   4.4825   4.4826   4.5710   4.5711
     4.5711   4.5712   4.5764   4.5765   4.6582   4.6583   4.7760   4.7760
     4.7760   4.7760   4.7761   4.7761   4.7761   4.7761   4.8353   4.8353
     4.8353   4.8353   4.8669   4.8669   4.8670   4.8670   5.0464   5.0464
     5.0464   5.0465   5.0485   5.0485   5.0485   5.0485   5.1160   5.1161
     5.1161   5.1162   5.1380   5.1380   5.1381   5.1381   5.1996   5.1996
     5.4523   5.4524   5.5489   5.5490   5.6310   5.6311   5.6311   5.6311
     5.6471   5.6471   5.6471   5.6471   5.8517   5.8517   5.8517   5.8518
     5.8908   5.8909   5.9162   5.9162   5.9163   5.9163   6.2719   6.2719
     6.2719   6.2719   6.2855   6.2856   6.2856   6.2856   6.4214   6.4215
     6.4449   6.4450   6.4850   6.4850   6.4851   6.4851   6.4947   6.4947
     6.4948   6.4948   6.5514   6.5514   6.5514   6.5514   6.5514   6.5514
     6.5514   6.5515   6.6058   6.6058   6.6058   6.6058   6.7619   6.7620
     6.7997   6.7998   6.8277   6.8277   6.8277   6.8277   6.8509   6.8509
     6.8510   6.8510   6.9925   6.9925   6.9925   6.9925   6.9926   6.9926
     6.9926   6.9926   6.9961   6.9961   6.9961   6.9962   7.0968   7.0969
     7.0969   7.0970   7.1178   7.1179   7.3136   7.3136   7.3136   7.3137
     7.4304   7.4305   7.4305   7.4305   7.4305   7.4305   7.4305   7.4305
     7.4741   7.4742   7.6820   7.6820   7.6820   7.6820   7.7105   7.7105
     7.7825   7.7825   7.7825   7.7826   7.7845   7.7845   7.7846   7.7846
     7.8179   7.8180   7.8180   7.8180   7.8180   7.8180   7.8181   7.8181
     8.1334   8.1335   8.1778   8.1779   8.1779   8.1780   8.1926   8.1926
     8.1926   8.1927   8.3770   8.3770   8.3771   8.3771   8.4574   8.4574
     8.4575   8.4575   8.6810   8.6811   8.6811   8.6812   9.0090   9.0092
    11.0898  11.0900  11.3743  11.3744  11.3745  11.3746  11.4385  11.4386
    11.5243  11.5244  11.5245  11.5246  11.5817  11.5818  11.6242  11.6243
    11.6799  11.6800  11.6800  11.6800  11.6829  11.6829  11.6829  11.6830
    11.6830  11.6831  11.6831  11.6831  11.8807  11.8807  11.8807  11.8807
    11.9498  11.9499  11.9499  11.9499  11.9499  11.9500  11.9500  11.9501
    11.9652  11.9652  11.9652  11.9652  12.0098  12.0099  12.0099  12.0100
    12.0253  12.0253  12.0254  12.0254  12.1503  12.1504  12.1598  12.1598
    12.1598  12.1598  12.2761  12.2761  12.2761  12.2762  12.3517  12.3518
    12.3714  12.3715  12.3715  12.3717  12.3772  12.3774  12.3919  12.3920
    12.3921  12.3922  12.4674  12.4674  12.4674  12.4674  12.6776  12.6776
    12.6777  12.6778  12.7427  12.7428  12.7429  12.7431

     occupation numbers 
     1.0000   1.0000   1.0000   1.0000   1.0000   1.0000   1.0000   1.0000
     1.0000   1.0000   1.0000   1.0000   1.0000   1.0000   1.0000   1.0000
     1.0000   1.0000   1.0000   1.0000   1.0000   1.0000   1.0000   1.0000
     1.0000   1.0000   1.0000   1.0000   1.0000   1.0000   1.0000   1.0000
     1.0000   1.0000   1.0000   1.0000   1.0000   1.0000   1.0000   1.0000
     1.0000   1.0000   1.0000   1.0000   1.0000   1.0000   1.0000   1.0000
     1.0000   1.0000   1.0000   1.0000   1.0000   1.0000   1.0000   1.0000
     1.0000   1.0000   1.0000   1.0000   1.0000   1.0000   1.0000   1.0000
     1.0000   1.0000   1.0000   1.0000   1.0000   1.0000   1.0000   1.0000
     1.0000   1.0000   1.0000   1.0000   1.0000   1.0000   1.0000   1.0000
     1.0000   1.0000   1.0000   1.0000   1.0000   1.0000   1.0000   1.0000
     1.0000   1.0000   1.0000   1.0000   1.0000   1.0000   1.0000   1.0000
     1.0000   1.0000   1.0000   1.0000   1.0000   1.0000   1.0000   1.0000
     1.0000   1.0000   1.0000   1.0000   1.0000   1.0000   1.0000   1.0000
     1.0000   1.0000   1.0000   1.0000   1.0000   1.0000   1.0000   1.0000
     1.0000   1.0000   1.0000   1.0000   1.0000   1.0000   1.0000   1.0000
     1.0000   1.0000   1.0000   1.0000   1.0000   1.0000   1.0000   1.0000
     1.0000   1.0000   1.0000   1.0000   1.0000   1.0000   1.0000   1.0000
     1.0000   1.0000   1.0000   1.0000   1.0000   1.0000   1.0000   1.0000
     1.0000   1.0000   1.0000   1.0000   1.0000   1.0000   1.0000   1.0000
     1.0000   1.0000   1.0000   1.0000   1.0000   1.0000   1.0000   1.0000
     1.0000   1.0000   1.0000   1.0000   1.0000   1.0000   1.0000   1.0000
     1.0000   1.0000   1.0000   1.0000   1.0000   1.0000   1.0000   1.0000
     1.0000   1.0000   1.0000   1.0000   1.0000   1.0000   1.0000   1.0000
     1.0000   1.0000   1.0000   1.0000   1.0000   1.0000   1.0000   1.0000
     1.0000   1.0000   1.0000   1.0000   1.0000   1.0000   1.0000   1.0000
     1.0000   1.0000   1.0000   1.0000   1.0000   1.0000   1.0000   1.0000
     1.0000   1.0000   1.0000   1.0000   1.0000   1.0000   1.0000   1.0000
     1.0000   1.0000   1.0000   1.0000   1.0000   1.0000   1.0000   1.0000
     1.0000   1.0000   1.0000   1.0000   1.0000   1.0000   1.0000   1.0000
     1.0000   1.0000   1.0000   1.0000   1.0000   1.0000   1.0000   1.0000
     1.0000   1.0000   1.0000   1.0000   1.0000   1.0000   1.0000   1.0000
     1.0000   1.0000   1.0000   1.0000   1.0000   1.0000   1.0000   1.0000
     1.0000   1.0000   1.0000   1.0000   1.0000   1.0000   1.0000   1.0000
     1.0000   1.0000   1.0000   1.0000   1.0000   1.0000   1.0000   1.0000
     1.0000   1.0000   1.0000   1.0000   1.0000   1.0000   1.0000   1.0000
     1.0000   1.0000   1.0000   1.0000   1.0000   1.0000   1.0000   1.0000
     1.0000   1.0000   1.0000   1.0000   1.0000   1.0000   1.0000   1.0000
     1.0000   1.0000   1.0000   1.0000   1.0000   1.0000   1.0000   1.0000
     1.0000   1.0000   1.0000   1.0000   1.0000   1.0000   1.0000   1.0000
     1.0000   1.0000   1.0000   1.0000   1.0000   1.0000   1.0000   1.0000
     1.0000   1.0000   1.0000   1.0000   1.0000   1.0000   1.0000   1.0000
     1.0000   1.0000   1.0000   1.0000   1.0000   1.0000   1.0000   1.0000
     1.0000   1.0000   1.0000   1.0000   1.0000   1.0000   1.0000   1.0000
     1.0000   1.0000   1.0000   1.0000   1.0000   1.0000   1.0000   1.0000
     1.0000   1.0000   1.0000   1.0000   1.0000   1.0000   1.0000   1.0000
     1.0000   1.0000   1.0000   1.0000   1.0000   1.0000   1.0000   1.0000
     1.0000   1.0000   1.0000   1.0000   1.0000   1.0000   1.0000   1.0000
     1.0000   1.0000   1.0000   1.0000   1.0000   1.0000   1.0000   1.0000
     1.0000   1.0000   1.0000   1.0000   1.0000   1.0000   1.0000   1.0000
     1.0000   1.0000   1.0000   1.0000   1.0000   1.0000   1.0000   1.0000
     1.0000   1.0000   1.0000   1.0000   1.0000   1.0000   1.0000   1.0000
     1.0000   1.0000   1.0000   1.0000   1.0000   1.0000   1.0000   1.0000
     1.0000   1.0000   1.0000   1.0000   1.0000   1.0000   1.0000   1.0000
     0.0000   0.0000   0.0000   0.0000   0.0000   0.0000   0.0000   0.0000
     0.0000   0.0000   0.0000   0.0000   0.0000   0.0000   0.0000   0.0000
     0.0000   0.0000   0.0000   0.0000   0.0000   0.0000   0.0000   0.0000
     0.0000   0.0000   0.0000   0.0000   0.0000   0.0000   0.0000   0.0000
     0.0000   0.0000   0.0000   0.0000   0.0000   0.0000   0.0000   0.0000
     0.0000   0.0000   0.0000   0.0000   0.0000   0.0000   0.0000   0.0000
     0.0000   0.0000   0.0000   0.0000   0.0000   0.0000   0.0000   0.0000
     0.0000   0.0000   0.0000   0.0000   0.0000   0.0000   0.0000   0.0000
     0.0000   0.0000   0.0000   0.0000   0.0000   0.0000   0.0000   0.0000
     0.0000   0.0000   0.0000   0.0000   0.0000   0.0000   0.0000   0.0000
     0.0000   0.0000   0.0000   0.0000   0.0000   0.0000

          k = 0.0000-0.3333 0.0000 ( 21002 PWs)   bands (ev):

   -47.7440 -47.7439 -47.7368 -47.7368 -47.7367 -47.7366 -47.7366 -47.7365
   -47.7364 -47.7362 -47.7294 -47.7293 -47.7101 -47.7100 -47.7099 -47.7099
   -47.7063 -47.7062 -47.7062 -47.7061 -47.7061 -47.7061 -47.7060 -47.7060
   -47.7060 -47.7059 -47.7059 -47.7059 -47.7058 -47.7057 -47.7057 -47.7056
   -47.7024 -47.7024 -47.7023 -47.7023 -24.1871 -24.1870 -24.1870 -24.1869
   -24.1835 -24.1835 -24.1834 -24.1834 -24.1834 -24.1833 -24.1833 -24.1832
   -24.1830 -24.1830 -24.1830 -24.1830 -24.1721 -24.1721 -24.1721 -24.1719
   -24.1713 -24.1712 -24.1711 -24.1711 -24.0685 -24.0685 -24.0478 -24.0477
   -24.0467 -24.0466 -24.0273 -24.0273 -24.0273 -24.0273 -24.0010 -24.0010
   -23.9653 -23.9653 -23.9653 -23.9652 -23.9523 -23.9522 -23.9521 -23.9521
   -23.9506 -23.9506 -23.9505 -23.9505 -23.9436 -23.9436 -23.9363 -23.9363
   -23.9363 -23.9363 -23.9363 -23.9363 -23.9363 -23.9362 -23.9192 -23.9191
   -23.9191 -23.9191 -23.9189 -23.9189 -23.9188 -23.9188 -23.9043 -23.9043
   -23.9042 -23.9042 -23.8960 -23.8958 -23.8952 -23.8951 -23.8902 -23.8901
   -23.8901 -23.8901 -23.8901 -23.8901 -23.8901 -23.8901 -23.8826 -23.8825
   -23.8824 -23.8824 -23.8810 -23.8810 -23.8809 -23.8808 -23.8776 -23.8776
   -23.8735 -23.8735 -23.8735 -23.8735 -23.8425 -23.8424 -23.8268 -23.8267
   -23.8265 -23.8265 -23.8265 -23.8265 -23.8263 -23.8262 -23.8103 -23.8102
    -9.0896  -9.0896  -8.5295  -8.5295  -8.4742  -8.4741  -8.4741  -8.4741
    -8.4535  -8.4535  -8.2429  -8.2429  -8.2429  -8.2429  -8.0587  -8.0587
    -8.0586  -8.0586  -8.0407  -8.0407  -8.0266  -8.0266  -8.0266  -8.0265
    -8.0265  -8.0265  -8.0265  -8.0265  -7.8508  -7.8508  -7.8507  -7.8507
    -7.7884  -7.7884  -7.7884  -7.7883  -7.7826  -7.7825  -7.7825  -7.7824
    -7.6695  -7.6694  -7.6694  -7.6694  -7.6126  -7.6126  -7.6126  -7.6125
    -7.6125  -7.6125  -7.6125  -7.6124  -7.5824  -7.5823  -7.5823  -7.5822
    -7.5772  -7.5772  -7.5772  -7.5771  -7.5267  -7.5267  -7.4990  -7.4989
    -7.4989  -7.4989  -7.4197  -7.4196  -7.3864  -7.3863  -7.3290  -7.3290
     3.5757   3.5757   3.6148   3.6148   3.8959   3.8959   4.0488   4.0488
     4.0489   4.0489   4.2540   4.2541   4.4396   4.4396   4.4447   4.4447
     4.4448   4.4448   4.5236   4.5236   4.5236   4.5237   4.5237   4.5237
     4.5237   4.5238   4.5286   4.5287   4.5288   4.5288   4.6079   4.6079
     4.6079   4.6079   4.6133   4.6133   4.6134   4.6134   4.7208   4.7208
     4.7208   4.7208   4.8143   4.8143   4.8143   4.8144   4.8969   4.8970
     4.8970   4.8970   4.8970   4.8971   4.8971   4.8971   4.9445   4.9445
     4.9445   4.9445   5.0808   5.0808   5.0808   5.0808   5.2528   5.2529
     5.3532   5.3533   5.3577   5.3577   5.3603   5.3604   5.3604   5.3604
     5.4015   5.4016   5.5400   5.5400   5.5400   5.5400   5.6626   5.6626
     5.6626   5.6626   5.6626   5.6626   5.6626   5.6627   5.6653   5.6654
     5.6654   5.6654   5.7856   5.7856   5.7856   5.7856   5.8107   5.8107
     5.8108   5.8108   5.8687   5.8688   5.8688   5.8689   5.9018   5.9018
     5.9018   5.9018   5.9277   5.9278   6.1424   6.1424   6.3131   6.3132
     6.4688   6.4688   6.4851   6.4852   6.4852   6.4852   6.5903   6.5903
     6.6378   6.6378   6.6378   6.6379   6.7016   6.7017   6.7017   6.7017
     6.7017   6.7017   6.7017   6.7017   6.8827   6.8828   6.8828   6.8828
     6.9858   6.9860   7.0689   7.0689   7.0690   7.0690   7.2127   7.2127
     7.2127   7.2127   7.2371   7.2371   7.3126   7.3126   7.3127   7.3127
     7.3127   7.3127   7.3127   7.3127   7.3271   7.3271   7.3271   7.3271
     7.4835   7.4835   7.4835   7.4835   7.5185   7.5185   7.5726   7.5726
     7.5726   7.5726   7.6022   7.6023   7.6023   7.6023   7.6124   7.6124
     7.6125   7.6126   7.8617   7.8617   8.0870   8.0871   8.1552   8.1552
     8.1553   8.1553   8.1713   8.1713   8.1714   8.1715   8.1877   8.1877
     8.1877   8.1877   8.1877   8.1878   8.1878   8.1878   8.1967   8.1967
     8.2229   8.2229   8.2229   8.2230   8.2474   8.2474   8.2947   8.2947
     8.2947   8.2948   8.4184   8.4184   8.4549   8.4549   9.0609   9.0610
    11.0987  11.0989  11.2078  11.2078  11.3880  11.3880  11.3881  11.3881
    11.4598  11.4599  11.4600  11.4601  11.5488  11.5489  11.5489  11.5490
    11.5490  11.5491  11.5491  11.5491  11.5611  11.5612  11.6082  11.6082
    11.6083  11.6084  11.7017  11.7018  11.7385  11.7387  11.7860  11.7860
    11.7902  11.7903  11.8311  11.8312  12.0240  12.0240  12.0241  12.0241
    12.0727  12.0728  12.0729  12.0730  12.1306  12.1307  12.1308  12.1309
    12.1458  12.1459  12.1459  12.1460  12.2023  12.2025  12.2495  12.2496
    12.2496  12.2497  12.3501  12.3501  12.3501  12.3501  12.3532  12.3533
    12.3533  12.3533  12.3533  12.3534  12.3534  12.3535  12.3594  12.3594
    12.3595  12.3595  12.4312  12.4313  12.4313  12.4315  12.7053  12.7053
    12.7054  12.7054  12.7587  12.7588  12.8267  12.8269

     occupation numbers 
     1.0000   1.0000   1.0000   1.0000   1.0000   1.0000   1.0000   1.0000
     1.0000   1.0000   1.0000   1.0000   1.0000   1.0000   1.0000   1.0000
     1.0000   1.0000   1.0000   1.0000   1.0000   1.0000   1.0000   1.0000
     1.0000   1.0000   1.0000   1.0000   1.0000   1.0000   1.0000   1.0000
     1.0000   1.0000   1.0000   1.0000   1.0000   1.0000   1.0000   1.0000
     1.0000   1.0000   1.0000   1.0000   1.0000   1.0000   1.0000   1.0000
     1.0000   1.0000   1.0000   1.0000   1.0000   1.0000   1.0000   1.0000
     1.0000   1.0000   1.0000   1.0000   1.0000   1.0000   1.0000   1.0000
     1.0000   1.0000   1.0000   1.0000   1.0000   1.0000   1.0000   1.0000
     1.0000   1.0000   1.0000   1.0000   1.0000   1.0000   1.0000   1.0000
     1.0000   1.0000   1.0000   1.0000   1.0000   1.0000   1.0000   1.0000
     1.0000   1.0000   1.0000   1.0000   1.0000   1.0000   1.0000   1.0000
     1.0000   1.0000   1.0000   1.0000   1.0000   1.0000   1.0000   1.0000
     1.0000   1.0000   1.0000   1.0000   1.0000   1.0000   1.0000   1.0000
     1.0000   1.0000   1.0000   1.0000   1.0000   1.0000   1.0000   1.0000
     1.0000   1.0000   1.0000   1.0000   1.0000   1.0000   1.0000   1.0000
     1.0000   1.0000   1.0000   1.0000   1.0000   1.0000   1.0000   1.0000
     1.0000   1.0000   1.0000   1.0000   1.0000   1.0000   1.0000   1.0000
     1.0000   1.0000   1.0000   1.0000   1.0000   1.0000   1.0000   1.0000
     1.0000   1.0000   1.0000   1.0000   1.0000   1.0000   1.0000   1.0000
     1.0000   1.0000   1.0000   1.0000   1.0000   1.0000   1.0000   1.0000
     1.0000   1.0000   1.0000   1.0000   1.0000   1.0000   1.0000   1.0000
     1.0000   1.0000   1.0000   1.0000   1.0000   1.0000   1.0000   1.0000
     1.0000   1.0000   1.0000   1.0000   1.0000   1.0000   1.0000   1.0000
     1.0000   1.0000   1.0000   1.0000   1.0000   1.0000   1.0000   1.0000
     1.0000   1.0000   1.0000   1.0000   1.0000   1.0000   1.0000   1.0000
     1.0000   1.0000   1.0000   1.0000   1.0000   1.0000   1.0000   1.0000
     1.0000   1.0000   1.0000   1.0000   1.0000   1.0000   1.0000   1.0000
     1.0000   1.0000   1.0000   1.0000   1.0000   1.0000   1.0000   1.0000
     1.0000   1.0000   1.0000   1.0000   1.0000   1.0000   1.0000   1.0000
     1.0000   1.0000   1.0000   1.0000   1.0000   1.0000   1.0000   1.0000
     1.0000   1.0000   1.0000   1.0000   1.0000   1.0000   1.0000   1.0000
     1.0000   1.0000   1.0000   1.0000   1.0000   1.0000   1.0000   1.0000
     1.0000   1.0000   1.0000   1.0000   1.0000   1.0000   1.0000   1.0000
     1.0000   1.0000   1.0000   1.0000   1.0000   1.0000   1.0000   1.0000
     1.0000   1.0000   1.0000   1.0000   1.0000   1.0000   1.0000   1.0000
     1.0000   1.0000   1.0000   1.0000   1.0000   1.0000   1.0000   1.0000
     1.0000   1.0000   1.0000   1.0000   1.0000   1.0000   1.0000   1.0000
     1.0000   1.0000   1.0000   1.0000   1.0000   1.0000   1.0000   1.0000
     1.0000   1.0000   1.0000   1.0000   1.0000   1.0000   1.0000   1.0000
     1.0000   1.0000   1.0000   1.0000   1.0000   1.0000   1.0000   1.0000
     1.0000   1.0000   1.0000   1.0000   1.0000   1.0000   1.0000   1.0000
     1.0000   1.0000   1.0000   1.0000   1.0000   1.0000   1.0000   1.0000
     1.0000   1.0000   1.0000   1.0000   1.0000   1.0000   1.0000   1.0000
     1.0000   1.0000   1.0000   1.0000   1.0000   1.0000   1.0000   1.0000
     1.0000   1.0000   1.0000   1.0000   1.0000   1.0000   1.0000   1.0000
     1.0000   1.0000   1.0000   1.0000   1.0000   1.0000   1.0000   1.0000
     1.0000   1.0000   1.0000   1.0000   1.0000   1.0000   1.0000   1.0000
     1.0000   1.0000   1.0000   1.0000   1.0000   1.0000   1.0000   1.0000
     1.0000   1.0000   1.0000   1.0000   1.0000   1.0000   1.0000   1.0000
     1.0000   1.0000   1.0000   1.0000   1.0000   1.0000   1.0000   1.0000
     1.0000   1.0000   1.0000   1.0000   1.0000   1.0000   1.0000   1.0000
     1.0000   1.0000   1.0000   1.0000   1.0000   1.0000   1.0000   1.0000
     1.0000   1.0000   1.0000   1.0000   1.0000   1.0000   1.0000   1.0000
     0.0000   0.0000   0.0000   0.0000   0.0000   0.0000   0.0000   0.0000
     0.0000   0.0000   0.0000   0.0000   0.0000   0.0000   0.0000   0.0000
     0.0000   0.0000   0.0000   0.0000   0.0000   0.0000   0.0000   0.0000
     0.0000   0.0000   0.0000   0.0000   0.0000   0.0000   0.0000   0.0000
     0.0000   0.0000   0.0000   0.0000   0.0000   0.0000   0.0000   0.0000
     0.0000   0.0000   0.0000   0.0000   0.0000   0.0000   0.0000   0.0000
     0.0000   0.0000   0.0000   0.0000   0.0000   0.0000   0.0000   0.0000
     0.0000   0.0000   0.0000   0.0000   0.0000   0.0000   0.0000   0.0000
     0.0000   0.0000   0.0000   0.0000   0.0000   0.0000   0.0000   0.0000
     0.0000   0.0000   0.0000   0.0000   0.0000   0.0000   0.0000   0.0000
     0.0000   0.0000   0.0000   0.0000   0.0000   0.0000

          k = 0.0000-0.3333-0.5176 ( 20988 PWs)   bands (ev):

   -47.7331 -47.7330 -47.7330 -47.7329 -47.7267 -47.7266 -47.7266 -47.7266
   -47.7265 -47.7265 -47.7265 -47.7264 -47.7264 -47.7264 -47.7263 -47.7263
   -47.7262 -47.7262 -47.7261 -47.7260 -47.7200 -47.7199 -47.7199 -47.7198
   -47.6961 -47.6961 -47.6960 -47.6959 -47.6959 -47.6959 -47.6957 -47.6957
   -47.6956 -47.6955 -47.6955 -47.6954 -24.2957 -24.2957 -24.2933 -24.2932
   -24.2932 -24.2931 -24.2877 -24.2876 -24.2876 -24.2874 -24.2831 -24.2830
   -24.0375 -24.0375 -24.0374 -24.0373 -24.0210 -24.0209 -24.0209 -24.0208
   -24.0174 -24.0173 -24.0173 -24.0172 -24.0056 -24.0056 -24.0056 -24.0056
   -24.0055 -24.0055 -24.0055 -24.0055 -23.9849 -23.9848 -23.9848 -23.9848
   -23.9649 -23.9648 -23.9648 -23.9648 -23.9542 -23.9541 -23.9541 -23.9540
   -23.9526 -23.9526 -23.9525 -23.9525 -23.9525 -23.9525 -23.9525 -23.9524
   -23.9449 -23.9448 -23.9448 -23.9447 -23.9382 -23.9381 -23.9381 -23.9380
   -23.9108 -23.9107 -23.9063 -23.9063 -23.9062 -23.9062 -23.9041 -23.9041
   -23.9040 -23.9040 -23.9009 -23.9009 -23.9008 -23.9008 -23.8993 -23.8993
   -23.8961 -23.8961 -23.8961 -23.8960 -23.8960 -23.8960 -23.8960 -23.8960
   -23.8922 -23.8922 -23.8913 -23.8912 -23.8912 -23.8911 -23.8897 -23.8897
   -23.8896 -23.8896 -23.8891 -23.8891 -23.8886 -23.8885 -23.8885 -23.8884
   -23.8841 -23.8840 -23.8840 -23.8839 -23.8739 -23.8738 -23.8737 -23.8737
    -8.8215  -8.8215  -8.8214  -8.8214  -8.3067  -8.3066  -8.3065  -8.3065
    -8.2675  -8.2675  -8.2675  -8.2674  -8.2674  -8.2674  -8.2674  -8.2673
    -8.2530  -8.2530  -8.2529  -8.2529  -8.1215  -8.1215  -8.0811  -8.0811
    -8.0811  -8.0810  -7.9530  -7.9528  -7.9528  -7.9528  -7.9032  -7.9032
    -7.8758  -7.8757  -7.8756  -7.8756  -7.6184  -7.6184  -7.6183  -7.6183
    -7.6172  -7.6171  -7.5981  -7.5980  -7.5980  -7.5980  -7.5979  -7.5979
    -7.5979  -7.5978  -7.5840  -7.5839  -7.5839  -7.5838  -7.5406  -7.5406
    -7.5405  -7.5405  -7.5131  -7.5130  -7.5129  -7.5129  -7.4523  -7.4523
    -7.4522  -7.4522  -7.4362  -7.4361  -7.4361  -7.4361  -7.3954  -7.3953
     3.9226   3.9226   3.9227   3.9227   3.9325   3.9326   3.9327   3.9327
     4.1153   4.1154   4.1519   4.1519   4.1520   4.1520   4.1942   4.1943
     4.1943   4.1944   4.3763   4.3764   4.3764   4.3764   4.3764   4.3764
     4.3765   4.3765   4.4687   4.4688   4.5541   4.5541   4.5541   4.5542
     4.5710   4.5711   4.5711   4.5712   4.6220   4.6221   4.6421   4.6421
     4.6422   4.6422   4.7222   4.7222   4.7222   4.7222   4.9137   4.9137
     4.9137   4.9137   4.9137   4.9138   4.9138   4.9138   5.0485   5.0485
     5.0485   5.0485   5.0882   5.0883   5.0883   5.0883   5.1156   5.1156
     5.1156   5.1156   5.1306   5.1307   5.1307   5.1307   5.1996   5.1996
     5.2922   5.2922   5.2922   5.2923   5.6083   5.6083   5.7934   5.7934
     5.7935   5.7935   5.8517   5.8517   5.8517   5.8518   5.8734   5.8734
     5.8734   5.8735   5.8908   5.8909   6.0832   6.0832   6.0832   6.0832
     6.0832   6.0832   6.0832   6.0832   6.3372   6.3372   6.3373   6.3373
     6.4448   6.4449   6.4483   6.4483   6.4484   6.4484   6.4850   6.4850
     6.4851   6.4851   6.5802   6.5802   6.5802   6.5803   6.7346   6.7346
     6.7347   6.7347   6.7347   6.7347   6.7347   6.7347   6.7619   6.7620
     6.8040   6.8040   6.8040   6.8040   6.9961   6.9961   6.9962   6.9962
     7.0132   7.0133   7.0133   7.0134   7.0913   7.0913   7.0913   7.0913
     7.0913   7.0913   7.0913   7.0913   7.1009   7.1009   7.1009   7.1009
     7.1056   7.1056   7.1056   7.1056   7.1163   7.1163   7.1164   7.1165
     7.1178   7.1179   7.1636   7.1637   7.1637   7.1638   7.2912   7.2913
     7.2913   7.2913   7.4541   7.4541   7.4541   7.4542   7.6113   7.6114
     7.6114   7.6114   7.7626   7.7627   7.7627   7.7628   7.8931   7.8931
     8.0837   8.0837   8.0838   8.0838   8.1105   8.1105   8.1105   8.1106
     8.1334   8.1335   8.2152   8.2152   8.2153   8.2154   8.2618   8.2618
     8.2618   8.2618   8.2619   8.2619   8.2619   8.2619   8.4574   8.4574
     8.4575   8.4575   8.4796   8.4797   8.8944   8.8944   8.8945   8.8945
    11.0898  11.0900  11.2122  11.2124  11.2125  11.2126  11.4745  11.4746
    11.4746  11.4746  11.5438  11.5439  11.5440  11.5441  11.7482  11.7482
    11.7483  11.7483  11.7708  11.7710  11.7856  11.7857  11.7857  11.7858
    11.8419  11.8419  11.8419  11.8419  11.8420  11.8420  11.8420  11.8420
    11.8807  11.8807  11.8807  11.8807  11.8847  11.8848  11.8849  11.8849
    11.8891  11.8892  11.8893  11.8894  12.0088  12.0089  12.0089  12.0090
    12.1535  12.1535  12.1535  12.1536  12.1536  12.1536  12.1536  12.1537
    12.1685  12.1686  12.1686  12.1686  12.2761  12.2762  12.2762  12.2762
    12.3588  12.3588  12.3589  12.3590  12.3772  12.3774  12.3822  12.3823
    12.3823  12.3825  12.3989  12.3990  12.4208  12.4210  12.7413  12.7414
    12.7415  12.7416  12.7427  12.7429  12.7436  12.7437

     occupation numbers 
     1.0000   1.0000   1.0000   1.0000   1.0000   1.0000   1.0000   1.0000
     1.0000   1.0000   1.0000   1.0000   1.0000   1.0000   1.0000   1.0000
     1.0000   1.0000   1.0000   1.0000   1.0000   1.0000   1.0000   1.0000
     1.0000   1.0000   1.0000   1.0000   1.0000   1.0000   1.0000   1.0000
     1.0000   1.0000   1.0000   1.0000   1.0000   1.0000   1.0000   1.0000
     1.0000   1.0000   1.0000   1.0000   1.0000   1.0000   1.0000   1.0000
     1.0000   1.0000   1.0000   1.0000   1.0000   1.0000   1.0000   1.0000
     1.0000   1.0000   1.0000   1.0000   1.0000   1.0000   1.0000   1.0000
     1.0000   1.0000   1.0000   1.0000   1.0000   1.0000   1.0000   1.0000
     1.0000   1.0000   1.0000   1.0000   1.0000   1.0000   1.0000   1.0000
     1.0000   1.0000   1.0000   1.0000   1.0000   1.0000   1.0000   1.0000
     1.0000   1.0000   1.0000   1.0000   1.0000   1.0000   1.0000   1.0000
     1.0000   1.0000   1.0000   1.0000   1.0000   1.0000   1.0000   1.0000
     1.0000   1.0000   1.0000   1.0000   1.0000   1.0000   1.0000   1.0000
     1.0000   1.0000   1.0000   1.0000   1.0000   1.0000   1.0000   1.0000
     1.0000   1.0000   1.0000   1.0000   1.0000   1.0000   1.0000   1.0000
     1.0000   1.0000   1.0000   1.0000   1.0000   1.0000   1.0000   1.0000
     1.0000   1.0000   1.0000   1.0000   1.0000   1.0000   1.0000   1.0000
     1.0000   1.0000   1.0000   1.0000   1.0000   1.0000   1.0000   1.0000
     1.0000   1.0000   1.0000   1.0000   1.0000   1.0000   1.0000   1.0000
     1.0000   1.0000   1.0000   1.0000   1.0000   1.0000   1.0000   1.0000
     1.0000   1.0000   1.0000   1.0000   1.0000   1.0000   1.0000   1.0000
     1.0000   1.0000   1.0000   1.0000   1.0000   1.0000   1.0000   1.0000
     1.0000   1.0000   1.0000   1.0000   1.0000   1.0000   1.0000   1.0000
     1.0000   1.0000   1.0000   1.0000   1.0000   1.0000   1.0000   1.0000
     1.0000   1.0000   1.0000   1.0000   1.0000   1.0000   1.0000   1.0000
     1.0000   1.0000   1.0000   1.0000   1.0000   1.0000   1.0000   1.0000
     1.0000   1.0000   1.0000   1.0000   1.0000   1.0000   1.0000   1.0000
     1.0000   1.0000   1.0000   1.0000   1.0000   1.0000   1.0000   1.0000
     1.0000   1.0000   1.0000   1.0000   1.0000   1.0000   1.0000   1.0000
     1.0000   1.0000   1.0000   1.0000   1.0000   1.0000   1.0000   1.0000
     1.0000   1.0000   1.0000   1.0000   1.0000   1.0000   1.0000   1.0000
     1.0000   1.0000   1.0000   1.0000   1.0000   1.0000   1.0000   1.0000
     1.0000   1.0000   1.0000   1.0000   1.0000   1.0000   1.0000   1.0000
     1.0000   1.0000   1.0000   1.0000   1.0000   1.0000   1.0000   1.0000
     1.0000   1.0000   1.0000   1.0000   1.0000   1.0000   1.0000   1.0000
     1.0000   1.0000   1.0000   1.0000   1.0000   1.0000   1.0000   1.0000
     1.0000   1.0000   1.0000   1.0000   1.0000   1.0000   1.0000   1.0000
     1.0000   1.0000   1.0000   1.0000   1.0000   1.0000   1.0000   1.0000
     1.0000   1.0000   1.0000   1.0000   1.0000   1.0000   1.0000   1.0000
     1.0000   1.0000   1.0000   1.0000   1.0000   1.0000   1.0000   1.0000
     1.0000   1.0000   1.0000   1.0000   1.0000   1.0000   1.0000   1.0000
     1.0000   1.0000   1.0000   1.0000   1.0000   1.0000   1.0000   1.0000
     1.0000   1.0000   1.0000   1.0000   1.0000   1.0000   1.0000   1.0000
     1.0000   1.0000   1.0000   1.0000   1.0000   1.0000   1.0000   1.0000
     1.0000   1.0000   1.0000   1.0000   1.0000   1.0000   1.0000   1.0000
     1.0000   1.0000   1.0000   1.0000   1.0000   1.0000   1.0000   1.0000
     1.0000   1.0000   1.0000   1.0000   1.0000   1.0000   1.0000   1.0000
     1.0000   1.0000   1.0000   1.0000   1.0000   1.0000   1.0000   1.0000
     1.0000   1.0000   1.0000   1.0000   1.0000   1.0000   1.0000   1.0000
     1.0000   1.0000   1.0000   1.0000   1.0000   1.0000   1.0000   1.0000
     1.0000   1.0000   1.0000   1.0000   1.0000   1.0000   1.0000   1.0000
     1.0000   1.0000   1.0000   1.0000   1.0000   1.0000   1.0000   1.0000
     1.0000   1.0000   1.0000   1.0000   1.0000   1.0000   1.0000   1.0000
     0.0000   0.0000   0.0000   0.0000   0.0000   0.0000   0.0000   0.0000
     0.0000   0.0000   0.0000   0.0000   0.0000   0.0000   0.0000   0.0000
     0.0000   0.0000   0.0000   0.0000   0.0000   0.0000   0.0000   0.0000
     0.0000   0.0000   0.0000   0.0000   0.0000   0.0000   0.0000   0.0000
     0.0000   0.0000   0.0000   0.0000   0.0000   0.0000   0.0000   0.0000
     0.0000   0.0000   0.0000   0.0000   0.0000   0.0000   0.0000   0.0000
     0.0000   0.0000   0.0000   0.0000   0.0000   0.0000   0.0000   0.0000
     0.0000   0.0000   0.0000   0.0000   0.0000   0.0000   0.0000   0.0000
     0.0000   0.0000   0.0000   0.0000   0.0000   0.0000   0.0000   0.0000
     0.0000   0.0000   0.0000   0.0000   0.0000   0.0000   0.0000   0.0000
     0.0000   0.0000   0.0000   0.0000   0.0000   0.0000

          k =-0.5000 0.0000 0.0000 ( 21058 PWs)   bands (ev):

   -47.7428 -47.7426 -47.7399 -47.7398 -47.7396 -47.7396 -47.7337 -47.7336
   -47.7334 -47.7334 -47.7306 -47.7304 -47.7094 -47.7094 -47.7092 -47.7092
   -47.7077 -47.7077 -47.7076 -47.7076 -47.7075 -47.7075 -47.7074 -47.7074
   -47.7046 -47.7046 -47.7045 -47.7045 -47.7044 -47.7043 -47.7043 -47.7043
   -47.7032 -47.7031 -47.7030 -47.7029 -24.1857 -24.1857 -24.1855 -24.1855
   -24.1850 -24.1850 -24.1850 -24.1849 -24.1849 -24.1849 -24.1848 -24.1847
   -24.1758 -24.1758 -24.1756 -24.1755 -24.1749 -24.1749 -24.1749 -24.1748
   -24.1748 -24.1748 -24.1747 -24.1746 -24.0617 -24.0616 -24.0616 -24.0615
   -24.0363 -24.0361 -24.0348 -24.0346 -24.0132 -24.0132 -24.0131 -24.0131
   -23.9607 -23.9607 -23.9607 -23.9607 -23.9607 -23.9606 -23.9606 -23.9606
   -23.9454 -23.9454 -23.9452 -23.9451 -23.9420 -23.9420 -23.9418 -23.9418
   -23.9337 -23.9337 -23.9336 -23.9336 -23.9264 -23.9264 -23.9264 -23.9264
   -23.9263 -23.9263 -23.9263 -23.9263 -23.9096 -23.9094 -23.9074 -23.9072
   -23.8977 -23.8976 -23.8976 -23.8976 -23.8975 -23.8975 -23.8975 -23.8975
   -23.8884 -23.8884 -23.8882 -23.8882 -23.8849 -23.8849 -23.8847 -23.8847
   -23.8836 -23.8836 -23.8835 -23.8835 -23.8762 -23.8762 -23.8762 -23.8762
   -23.8762 -23.8761 -23.8761 -23.8761 -23.8387 -23.8385 -23.8328 -23.8326
   -23.8325 -23.8325 -23.8205 -23.8204 -23.8203 -23.8202 -23.8140 -23.8138
    -8.9735  -8.9735  -8.7370  -8.7369  -8.7369  -8.7369  -8.2505  -8.2505
    -8.2504  -8.2504  -8.2108  -8.2108  -8.2107  -8.2107  -8.1025  -8.1025
    -8.1025  -8.1025  -8.1024  -8.1024  -8.1023  -8.1023  -8.0663  -8.0663
    -7.8698  -7.8698  -7.8698  -7.8698  -7.8698  -7.8697  -7.8697  -7.8697
    -7.8573  -7.8573  -7.8573  -7.8573  -7.7244  -7.7244  -7.7243  -7.7243
    -7.7243  -7.7242  -7.7242  -7.7242  -7.6527  -7.6527  -7.6526  -7.6526
    -7.5790  -7.5790  -7.5790  -7.5789  -7.5789  -7.5789  -7.5789  -7.5788
    -7.5589  -7.5589  -7.5589  -7.5589  -7.5485  -7.5485  -7.5484  -7.5483
    -7.4733  -7.4733  -7.3830  -7.3830  -7.3829  -7.3829  -7.3718  -7.3717
     3.6323   3.6324   3.6324   3.6324   3.7648   3.7649   4.0203   4.0204
     4.2190   4.2190   4.2191   4.2192   4.5134   4.5134   4.5134   4.5134
     4.5135   4.5135   4.5135   4.5135   4.5591   4.5591   4.5591   4.5591
     4.5591   4.5591   4.5591   4.5592   4.6264   4.6264   4.6264   4.6264
     4.6293   4.6293   4.6293   4.6293   4.6294   4.6294   4.6294   4.6294
     4.6715   4.6716   4.7086   4.7086   4.7086   4.7087   4.7954   4.7954
     4.7954   4.7954   5.0421   5.0421   5.0421   5.0422   5.0422   5.0422
     5.0422   5.0422   5.0458   5.0458   5.0458   5.0458   5.2358   5.2358
     5.2359   5.2359   5.2961   5.2961   5.2961   5.2962   5.3598   5.3599
     5.3782   5.3782   5.3782   5.3783   5.3798   5.3799   5.3880   5.3880
     5.3881   5.3881   5.3881   5.3881   5.3881   5.3881   5.5671   5.5671
     5.5671   5.5671   5.6614   5.6614   5.6615   5.6615   6.0232   6.0233
     6.0233   6.0233   6.0233   6.0233   6.0234   6.0234   6.1476   6.1476
     6.1477   6.1477   6.2110   6.2111   6.2111   6.2112   6.3058   6.3059
     6.4918   6.4918   6.5972   6.5972   6.5972   6.5972   6.5972   6.5972
     6.5973   6.5973   6.7076   6.7076   6.7078   6.7078   6.7987   6.7987
     6.7987   6.7987   6.7988   6.7988   6.7988   6.7988   6.9899   6.9899
     6.9899   6.9900   7.1255   7.1255   7.1255   7.1255   7.1441   7.1441
     7.1441   7.1441   7.1442   7.1442   7.1442   7.1442   7.2559   7.2559
     7.3126   7.3127   7.3127   7.3127   7.4288   7.4289   7.4289   7.4289
     7.4662   7.4662   7.4663   7.4663   7.5546   7.5546   7.5546   7.5546
     7.5547   7.5547   7.5547   7.5548   7.6376   7.6377   7.6377   7.6377
     7.7150   7.7150   7.8601   7.8601   7.8601   7.8602   7.9121   7.9122
     7.9122   7.9123   7.9123   7.9123   7.9123   7.9124   7.9385   7.9385
     7.9386   7.9386   8.0826   8.0827   8.3005   8.3006   8.3743   8.3744
     8.3744   8.3744   8.4269   8.4269   8.4270   8.4270   8.4270   8.4270
     8.4270   8.4270   8.5902   8.5902   8.5902   8.5903   8.9295   8.9296
    11.1797  11.1798  11.1798  11.1799  11.2906  11.2906  11.2907  11.2907
    11.3513  11.3514  11.3514  11.3515  11.3516  11.3516  11.3516  11.3516
    11.3544  11.3546  11.6921  11.6922  11.7215  11.7216  11.7216  11.7217
    11.7263  11.7264  11.7264  11.7266  11.9076  11.9078  11.9749  11.9751
    11.9905  11.9907  12.0484  12.0484  12.0485  12.0485  12.0485  12.0485
    12.0486  12.0486  12.1022  12.1022  12.1022  12.1022  12.1712  12.1712
    12.1713  12.1715  12.1734  12.1734  12.1735  12.1735  12.1781  12.1781
    12.1781  12.1781  12.1782  12.1783  12.1783  12.1783  12.3733  12.3734
    12.3734  12.3734  12.3734  12.3735  12.3735  12.3736  12.3922  12.3923
    12.3924  12.3924  12.5178  12.5179  12.5180  12.5181  12.5478  12.5478
    12.5479  12.5479  12.5479  12.5480  12.5480  12.5480

     occupation numbers 
     1.0000   1.0000   1.0000   1.0000   1.0000   1.0000   1.0000   1.0000
     1.0000   1.0000   1.0000   1.0000   1.0000   1.0000   1.0000   1.0000
     1.0000   1.0000   1.0000   1.0000   1.0000   1.0000   1.0000   1.0000
     1.0000   1.0000   1.0000   1.0000   1.0000   1.0000   1.0000   1.0000
     1.0000   1.0000   1.0000   1.0000   1.0000   1.0000   1.0000   1.0000
     1.0000   1.0000   1.0000   1.0000   1.0000   1.0000   1.0000   1.0000
     1.0000   1.0000   1.0000   1.0000   1.0000   1.0000   1.0000   1.0000
     1.0000   1.0000   1.0000   1.0000   1.0000   1.0000   1.0000   1.0000
[...]
    11.6579  11.6580  11.6581  11.6581  11.6582  11.6582  11.6583  11.6583
    11.7207  11.7207  11.7208  11.7209  11.7744  11.7745  11.7746  11.7746
    11.9466  11.9466  11.9466  11.9470  12.0825  12.0825  12.0825  12.0825
    12.0826  12.0826  12.0826  12.0827  12.1573  12.1575  12.1575  12.1576
    12.1700  12.1701  12.1702  12.1703  12.2263  12.2263  12.2263  12.2264
    12.2264  12.2264  12.2264  12.2265  12.2798  12.2798  12.2799  12.2799
    12.2799  12.2799  12.2801  12.2802  12.4245  12.4245  12.4245  12.4246
    12.4246  12.4246  12.4246  12.4247  12.6088  12.6089  12.6089  12.6089
    12.6089  12.6090  12.6090  12.6091  12.7374  12.7375

     occupation numbers 
     1.0000   1.0000   1.0000   1.0000   1.0000   1.0000   1.0000   1.0000
     1.0000   1.0000   1.0000   1.0000   1.0000   1.0000   1.0000   1.0000
     1.0000   1.0000   1.0000   1.0000   1.0000   1.0000   1.0000   1.0000
     1.0000   1.0000   1.0000   1.0000   1.0000   1.0000   1.0000   1.0000
     1.0000   1.0000   1.0000   1.0000   1.0000   1.0000   1.0000   1.0000
     1.0000   1.0000   1.0000   1.0000   1.0000   1.0000   1.0000   1.0000
     1.0000   1.0000   1.0000   1.0000   1.0000   1.0000   1.0000   1.0000
     1.0000   1.0000   1.0000   1.0000   1.0000   1.0000   1.0000   1.0000
     1.0000   1.0000   1.0000   1.0000   1.0000   1.0000   1.0000   1.0000
     1.0000   1.0000   1.0000   1.0000   1.0000   1.0000   1.0000   1.0000
     1.0000   1.0000   1.0000   1.0000   1.0000   1.0000   1.0000   1.0000
     1.0000   1.0000   1.0000   1.0000   1.0000   1.0000   1.0000   1.0000
     1.0000   1.0000   1.0000   1.0000   1.0000   1.0000   1.0000   1.0000
     1.0000   1.0000   1.0000   1.0000   1.0000   1.0000   1.0000   1.0000
     1.0000   1.0000   1.0000   1.0000   1.0000   1.0000   1.0000   1.0000
     1.0000   1.0000   1.0000   1.0000   1.0000   1.0000   1.0000   1.0000
     1.0000   1.0000   1.0000   1.0000   1.0000   1.0000   1.0000   1.0000
     1.0000   1.0000   1.0000   1.0000   1.0000   1.0000   1.0000   1.0000
     1.0000   1.0000   1.0000   1.0000   1.0000   1.0000   1.0000   1.0000
     1.0000   1.0000   1.0000   1.0000   1.0000   1.0000   1.0000   1.0000
     1.0000   1.0000   1.0000   1.0000   1.0000   1.0000   1.0000   1.0000
     1.0000   1.0000   1.0000   1.0000   1.0000   1.0000   1.0000   1.0000
     1.0000   1.0000   1.0000   1.0000   1.0000   1.0000   1.0000   1.0000
     1.0000   1.0000   1.0000   1.0000   1.0000   1.0000   1.0000   1.0000
     1.0000   1.0000   1.0000   1.0000   1.0000   1.0000   1.0000   1.0000
     1.0000   1.0000   1.0000   1.0000   1.0000   1.0000   1.0000   1.0000
     1.0000   1.0000   1.0000   1.0000   1.0000   1.0000   1.0000   1.0000
     1.0000   1.0000   1.0000   1.0000   1.0000   1.0000   1.0000   1.0000
     1.0000   1.0000   1.0000   1.0000   1.0000   1.0000   1.0000   1.0000
     1.0000   1.0000   1.0000   1.0000   1.0000   1.0000   1.0000   1.0000
     1.0000   1.0000   1.0000   1.0000   1.0000   1.0000   1.0000   1.0000
     1.0000   1.0000   1.0000   1.0000   1.0000   1.0000   1.0000   1.0000
     1.0000   1.0000   1.0000   1.0000   1.0000   1.0000   1.0000   1.0000
     1.0000   1.0000   1.0000   1.0000   1.0000   1.0000   1.0000   1.0000
     1.0000   1.0000   1.0000   1.0000   1.0000   1.0000   1.0000   1.0000
     1.0000   1.0000   1.0000   1.0000   1.0000   1.0000   1.0000   1.0000
     1.0000   1.0000   1.0000   1.0000   1.0000   1.0000   1.0000   1.0000
     1.0000   1.0000   1.0000   1.0000   1.0000   1.0000   1.0000   1.0000
     1.0000   1.0000   1.0000   1.0000   1.0000   1.0000   1.0000   1.0000
     1.0000   1.0000   1.0000   1.0000   1.0000   1.0000   1.0000   1.0000
     1.0000   1.0000   1.0000   1.0000   1.0000   1.0000   1.0000   1.0000
     1.0000   1.0000   1.0000   1.0000   1.0000   1.0000   1.0000   1.0000
     1.0000   1.0000   1.0000   1.0000   1.0000   1.0000   1.0000   1.0000
     1.0000   1.0000   1.0000   1.0000   1.0000   1.0000   1.0000   1.0000
     1.0000   1.0000   1.0000   1.0000   1.0000   1.0000   1.0000   1.0000
     1.0000   1.0000   1.0000   1.0000   1.0000   1.0000   1.0000   1.0000
     1.0000   1.0000   1.0000   1.0000   1.0000   1.0000   1.0000   1.0000
     1.0000   1.0000   1.0000   1.0000   1.0000   1.0000   1.0000   1.0000
     1.0000   1.0000   1.0000   1.0000   1.0000   1.0000   1.0000   1.0000
     1.0000   1.0000   1.0000   1.0000   1.0000   1.0000   1.0000   1.0000
     1.0000   1.0000   1.0000   1.0000   1.0000   1.0000   1.0000   1.0000
     1.0000   1.0000   1.0000   1.0000   1.0000   1.0000   1.0000   1.0000
     1.0000   1.0000   1.0000   1.0000   1.0000   1.0000   1.0000   1.0000
     1.0000   1.0000   1.0000   1.0000   1.0000   1.0000   1.0000   1.0000
     0.0000   0.0000   0.0000   0.0000   0.0000   0.0000   0.0000   0.0000
     0.0000   0.0000   0.0000   0.0000   0.0000   0.0000   0.0000   0.0000
     0.0000   0.0000   0.0000   0.0000   0.0000   0.0000   0.0000   0.0000
     0.0000   0.0000   0.0000   0.0000   0.0000   0.0000   0.0000   0.0000
     0.0000   0.0000   0.0000   0.0000   0.0000   0.0000   0.0000   0.0000
     0.0000   0.0000   0.0000   0.0000   0.0000   0.0000   0.0000   0.0000
     0.0000   0.0000   0.0000   0.0000   0.0000   0.0000   0.0000   0.0000
     0.0000   0.0000   0.0000   0.0000   0.0000   0.0000   0.0000   0.0000
     0.0000   0.0000   0.0000   0.0000   0.0000   0.0000   0.0000   0.0000
     0.0000   0.0000   0.0000   0.0000   0.0000   0.0000   0.0000   0.0000
     0.0000   0.0000   0.0000   0.0000   0.0000   0.0000

          k =-0.5000-0.3333-0.5176 ( 21016 PWs)   bands (ev):

   -47.7313 -47.7311 -47.7311 -47.7310 -47.7310 -47.7309 -47.7308 -47.7308
   -47.7266 -47.7265 -47.7265 -47.7265 -47.7264 -47.7264 -47.7262 -47.7260
   -47.7222 -47.7220 -47.7219 -47.7219 -47.7218 -47.7218 -47.7217 -47.7217
   -47.6962 -47.6961 -47.6960 -47.6960 -47.6959 -47.6959 -47.6957 -47.6957
   -47.6956 -47.6956 -47.6956 -47.6954 -24.2944 -24.2944 -24.2944 -24.2943
   -24.2900 -24.2899 -24.2899 -24.2896 -24.2863 -24.2863 -24.2863 -24.2861
   -24.0285 -24.0284 -24.0284 -24.0284 -24.0283 -24.0283 -24.0283 -24.0282
   -24.0183 -24.0182 -24.0182 -24.0182 -24.0181 -24.0181 -24.0180 -24.0180
   -23.9882 -23.9882 -23.9881 -23.9881 -23.9881 -23.9881 -23.9881 -23.9880
   -23.9659 -23.9659 -23.9659 -23.9659 -23.9659 -23.9658 -23.9658 -23.9658
   -23.9484 -23.9483 -23.9483 -23.9483 -23.9483 -23.9483 -23.9481 -23.9480
   -23.9425 -23.9425 -23.9424 -23.9424 -23.9424 -23.9424 -23.9423 -23.9422
   -23.9090 -23.9089 -23.9089 -23.9088 -23.9039 -23.9036 -23.9036 -23.9035
   -23.9023 -23.9023 -23.9023 -23.9023 -23.9022 -23.9022 -23.9022 -23.9022
   -23.8988 -23.8987 -23.8987 -23.8986 -23.8917 -23.8916 -23.8915 -23.8915
   -23.8907 -23.8905 -23.8905 -23.8905 -23.8905 -23.8904 -23.8903 -23.8903
   -23.8884 -23.8883 -23.8882 -23.8882 -23.8881 -23.8881 -23.8881 -23.8880
   -23.8795 -23.8794 -23.8794 -23.8794 -23.8794 -23.8793 -23.8793 -23.8793
    -8.6619  -8.6618  -8.6618  -8.6618  -8.6617  -8.6617  -8.6617  -8.6616
    -8.2810  -8.2810  -8.2809  -8.2809  -8.2809  -8.2808  -8.2808  -8.2808
    -8.1113  -8.1113  -8.1113  -8.1112  -8.0350  -8.0349  -8.0349  -8.0349
    -7.9131  -7.9130  -7.9130  -7.9130  -7.9129  -7.9129  -7.9129  -7.9128
    -7.8879  -7.8879  -7.8878  -7.8878  -7.6474  -7.6474  -7.6474  -7.6473
    -7.6473  -7.6473  -7.6473  -7.6472  -7.6462  -7.6462  -7.6461  -7.6461
    -7.5784  -7.5783  -7.5783  -7.5782  -7.5782  -7.5782  -7.5782  -7.5781
    -7.4832  -7.4832  -7.4831  -7.4831  -7.4751  -7.4751  -7.4751  -7.4750
    -7.4750  -7.4750  -7.4749  -7.4749  -7.4092  -7.4092  -7.4092  -7.4091
     3.9403   3.9404   3.9404   3.9404   3.9405   3.9405   3.9405   3.9406
     4.1882   4.1883   4.1883   4.1883   4.2048   4.2049   4.2049   4.2050
     4.2050   4.2050   4.2050   4.2051   4.2075   4.2075   4.2075   4.2076
     4.5809   4.5810   4.5810   4.5810   4.5811   4.5811   4.5811   4.5811
     4.6786   4.6787   4.6787   4.6787   4.6944   4.6944   4.6944   4.6944
     4.6944   4.6944   4.6944   4.6945   4.8368   4.8368   4.8368   4.8368
     4.8368   4.8369   4.8369   4.8369   5.0229   5.0231   5.0231   5.0231
     5.0257   5.0257   5.0257   5.0258   5.0848   5.0848   5.0848   5.0848
     5.1105   5.1105   5.1106   5.1106   5.1106   5.1106   5.1106   5.1107
     5.2336   5.2336   5.2337   5.2338   5.5177   5.5177   5.5177   5.5178
     5.5178   5.5178   5.5178   5.5178   5.7069   5.7069   5.7070   5.7070
     6.1358   6.1359   6.1359   6.1359   6.1359   6.1359   6.1359   6.1359
     6.2974   6.2975   6.2975   6.2975   6.2975   6.2975   6.2975   6.2975
     6.3789   6.3789   6.3789   6.3791   6.5165   6.5165   6.5165   6.5166
     6.5217   6.5219   6.5219   6.5219   6.6713   6.6714   6.6714   6.6714
     6.7107   6.7107   6.7107   6.7107   6.7107   6.7107   6.7108   6.7108
     6.8358   6.8358   6.8359   6.8359   6.8359   6.8359   6.8359   6.8359
     6.8955   6.8955   6.8955   6.8956   6.8956   6.8956   6.8956   6.8956
     7.1662   7.1662   7.1662   7.1662   7.1663   7.1663   7.1663   7.1663
     7.1756   7.1756   7.1757   7.1757   7.2464   7.2464   7.2464   7.2464
     7.2465   7.2465   7.2465   7.2465   7.4586   7.4586   7.4587   7.4587
     7.6484   7.6485   7.6485   7.6486   7.7295   7.7295   7.7296   7.7296
     7.7529   7.7530   7.7530   7.7530   7.9693   7.9693   7.9693   7.9694
     7.9694   7.9694   7.9694   7.9695   8.0516   8.0516   8.0517   8.0517
     8.0517   8.0517   8.0518   8.0518   8.0611   8.0611   8.0611   8.0612
     8.0612   8.0612   8.0613   8.0613   8.2948   8.2948   8.2949   8.2950
     8.6412   8.6413   8.6413   8.6413   8.6414   8.6414   8.6414   8.6415
    11.3536  11.3539  11.3539  11.3540  11.3819  11.3820  11.3821  11.3821
    11.5655  11.5655  11.5656  11.5656  11.5656  11.5656  11.5656  11.5657
    11.6148  11.6149  11.6149  11.6149  11.6149  11.6150  11.6150  11.6150
    11.7818  11.7818  11.7818  11.7818  11.7819  11.7819  11.7820  11.7820
    11.9064  11.9065  11.9066  11.9066  11.9887  11.9888  11.9888  11.9889
    11.9889  11.9889  11.9889  11.9889  12.0378  12.0378  12.0378  12.0378
    12.0379  12.0379  12.0380  12.0380  12.2880  12.2880  12.2880  12.2880
    12.2881  12.2882  12.2882  12.2882  12.3642  12.3642  12.3643  12.3643
    12.3643  12.3643  12.3644  12.3644  12.3670  12.3671  12.3671  12.3672
    12.3699  12.3700  12.3700  12.3702  12.3872  12.3873  12.3873  12.3876
    12.6205  12.6205  12.6205  12.6207  12.7396  12.7397

     occupation numbers 
     1.0000   1.0000   1.0000   1.0000   1.0000   1.0000   1.0000   1.0000
     1.0000   1.0000   1.0000   1.0000   1.0000   1.0000   1.0000   1.0000
     1.0000   1.0000   1.0000   1.0000   1.0000   1.0000   1.0000   1.0000
     1.0000   1.0000   1.0000   1.0000   1.0000   1.0000   1.0000   1.0000
     1.0000   1.0000   1.0000   1.0000   1.0000   1.0000   1.0000   1.0000
     1.0000   1.0000   1.0000   1.0000   1.0000   1.0000   1.0000   1.0000
     1.0000   1.0000   1.0000   1.0000   1.0000   1.0000   1.0000   1.0000
     1.0000   1.0000   1.0000   1.0000   1.0000   1.0000   1.0000   1.0000
     1.0000   1.0000   1.0000   1.0000   1.0000   1.0000   1.0000   1.0000
     1.0000   1.0000   1.0000   1.0000   1.0000   1.0000   1.0000   1.0000
     1.0000   1.0000   1.0000   1.0000   1.0000   1.0000   1.0000   1.0000
     1.0000   1.0000   1.0000   1.0000   1.0000   1.0000   1.0000   1.0000
     1.0000   1.0000   1.0000   1.0000   1.0000   1.0000   1.0000   1.0000
     1.0000   1.0000   1.0000   1.0000   1.0000   1.0000   1.0000   1.0000
     1.0000   1.0000   1.0000   1.0000   1.0000   1.0000   1.0000   1.0000
     1.0000   1.0000   1.0000   1.0000   1.0000   1.0000   1.0000   1.0000
     1.0000   1.0000   1.0000   1.0000   1.0000   1.0000   1.0000   1.0000
     1.0000   1.0000   1.0000   1.0000   1.0000   1.0000   1.0000   1.0000
     1.0000   1.0000   1.0000   1.0000   1.0000   1.0000   1.0000   1.0000
     1.0000   1.0000   1.0000   1.0000   1.0000   1.0000   1.0000   1.0000
     1.0000   1.0000   1.0000   1.0000   1.0000   1.0000   1.0000   1.0000
     1.0000   1.0000   1.0000   1.0000   1.0000   1.0000   1.0000   1.0000
     1.0000   1.0000   1.0000   1.0000   1.0000   1.0000   1.0000   1.0000
     1.0000   1.0000   1.0000   1.0000   1.0000   1.0000   1.0000   1.0000
     1.0000   1.0000   1.0000   1.0000   1.0000   1.0000   1.0000   1.0000
     1.0000   1.0000   1.0000   1.0000   1.0000   1.0000   1.0000   1.0000
     1.0000   1.0000   1.0000   1.0000   1.0000   1.0000   1.0000   1.0000
     1.0000   1.0000   1.0000   1.0000   1.0000   1.0000   1.0000   1.0000
     1.0000   1.0000   1.0000   1.0000   1.0000   1.0000   1.0000   1.0000
     1.0000   1.0000   1.0000   1.0000   1.0000   1.0000   1.0000   1.0000
     1.0000   1.0000   1.0000   1.0000   1.0000   1.0000   1.0000   1.0000
     1.0000   1.0000   1.0000   1.0000   1.0000   1.0000   1.0000   1.0000
     1.0000   1.0000   1.0000   1.0000   1.0000   1.0000   1.0000   1.0000
     1.0000   1.0000   1.0000   1.0000   1.0000   1.0000   1.0000   1.0000
     1.0000   1.0000   1.0000   1.0000   1.0000   1.0000   1.0000   1.0000
     1.0000   1.0000   1.0000   1.0000   1.0000   1.0000   1.0000   1.0000
     1.0000   1.0000   1.0000   1.0000   1.0000   1.0000   1.0000   1.0000
     1.0000   1.0000   1.0000   1.0000   1.0000   1.0000   1.0000   1.0000
     1.0000   1.0000   1.0000   1.0000   1.0000   1.0000   1.0000   1.0000
     1.0000   1.0000   1.0000   1.0000   1.0000   1.0000   1.0000   1.0000
     1.0000   1.0000   1.0000   1.0000   1.0000   1.0000   1.0000   1.0000
     1.0000   1.0000   1.0000   1.0000   1.0000   1.0000   1.0000   1.0000
     1.0000   1.0000   1.0000   1.0000   1.0000   1.0000   1.0000   1.0000
     1.0000   1.0000   1.0000   1.0000   1.0000   1.0000   1.0000   1.0000
     1.0000   1.0000   1.0000   1.0000   1.0000   1.0000   1.0000   1.0000
     1.0000   1.0000   1.0000   1.0000   1.0000   1.0000   1.0000   1.0000
     1.0000   1.0000   1.0000   1.0000   1.0000   1.0000   1.0000   1.0000
     1.0000   1.0000   1.0000   1.0000   1.0000   1.0000   1.0000   1.0000
     1.0000   1.0000   1.0000   1.0000   1.0000   1.0000   1.0000   1.0000
     1.0000   1.0000   1.0000   1.0000   1.0000   1.0000   1.0000   1.0000
     1.0000   1.0000   1.0000   1.0000   1.0000   1.0000   1.0000   1.0000
     1.0000   1.0000   1.0000   1.0000   1.0000   1.0000   1.0000   1.0000
     1.0000   1.0000   1.0000   1.0000   1.0000   1.0000   1.0000   1.0000
     1.0000   1.0000   1.0000   1.0000   1.0000   1.0000   1.0000   1.0000
     0.0000   0.0000   0.0000   0.0000   0.0000   0.0000   0.0000   0.0000
     0.0000   0.0000   0.0000   0.0000   0.0000   0.0000   0.0000   0.0000
     0.0000   0.0000   0.0000   0.0000   0.0000   0.0000   0.0000   0.0000
     0.0000   0.0000   0.0000   0.0000   0.0000   0.0000   0.0000   0.0000
     0.0000   0.0000   0.0000   0.0000   0.0000   0.0000   0.0000   0.0000
     0.0000   0.0000   0.0000   0.0000   0.0000   0.0000   0.0000   0.0000
     0.0000   0.0000   0.0000   0.0000   0.0000   0.0000   0.0000   0.0000
     0.0000   0.0000   0.0000   0.0000   0.0000   0.0000   0.0000   0.0000
     0.0000   0.0000   0.0000   0.0000   0.0000   0.0000   0.0000   0.0000
     0.0000   0.0000   0.0000   0.0000   0.0000   0.0000   0.0000   0.0000
     0.0000   0.0000   0.0000   0.0000   0.0000   0.0000

     the Fermi energy is    10.2317 ev

!    total energy              =   -7208.34773608 Ry
     estimated scf accuracy    <       0.00000053 Ry
     smearing contrib. (-TS)   =      -0.00000000 Ry
     internal energy E=F+TS    =   -7208.34773608 Ry

     The total energy is F=E-TS. E is the sum of the following terms:
     one-electron contribution =   -2251.99792327 Ry
     hartree contribution      =    1546.40343539 Ry
     xc contribution           =   -1058.32855373 Ry
     ewald contribution        =   -4758.86883662 Ry
     one-center paw contrib.   =    -685.55585785 Ry
      -> PAW hartree energy AE =    1089.69066658 Ry
      -> PAW hartree energy PS =   -1085.84550284 Ry
      -> PAW xc energy AE      =    -621.70480508 Ry
      -> PAW xc energy PS      =     275.08171241 Ry
      -> total E_H with PAW    =    1550.24859913 Ry
      -> total E_XC with PAW   =   -1404.95164639 Ry

     convergence has been achieved in  15 iterations

     Writing all to output data dir ./tmp/TiO2_perfect.save/

     init_run     :     69.60s CPU     38.27s WALL (       1 calls)
     electrons    :   3215.59s CPU   1778.41s WALL (       1 calls)

     Called by init_run:
     wfcinit      :     65.76s CPU     35.82s WALL (       1 calls)
     wfcinit:atom :      0.37s CPU      0.44s WALL (       8 calls)
     wfcinit:wfcr :     63.33s CPU     31.30s WALL (       8 calls)
     potinit      :      1.58s CPU      0.86s WALL (       1 calls)
     hinit0       :      0.78s CPU      0.56s WALL (       1 calls)

     Called by electrons:
     c_bands      :   2859.83s CPU   1577.38s WALL (      15 calls)
     sum_band     :    323.47s CPU    181.50s WALL (      15 calls)
     v_of_rho     :      3.97s CPU      2.08s WALL (      16 calls)
     v_h          :      0.28s CPU      0.16s WALL (      16 calls)
     v_xc         :      3.69s CPU      1.92s WALL (      16 calls)
     newd         :     19.73s CPU     13.49s WALL (      16 calls)
     PAW_pot      :      9.63s CPU      4.66s WALL (      16 calls)
     mix_rho      :      0.76s CPU      0.40s WALL (      15 calls)

     Called by c_bands:
     init_us_2    :     10.52s CPU      6.13s WALL (     248 calls)
     init_us_2:cp :     10.49s CPU      6.13s WALL (     248 calls)
     cegterg      :   2827.35s CPU   1559.79s WALL (     121 calls)

     Called by sum_band:
     sum_band:wei :      0.01s CPU      0.01s WALL (      15 calls)
     sum_band:loo :    302.05s CPU    161.97s WALL (      15 calls)
     sum_band:buf :      2.39s CPU      1.23s WALL (     120 calls)
     sum_band:ini :      4.46s CPU      2.31s WALL (     120 calls)
     sum_band:cal :    112.48s CPU     57.89s WALL (     120 calls)
     sum_band:bec :     39.33s CPU     29.43s WALL (     120 calls)
     addusdens    :     18.17s CPU     16.93s WALL (      15 calls)
                                        0.00s GPU  (      15 calls)
     addusd:skk   :      1.21s CPU      2.95s WALL (      30 calls)
                                        0.00s GPU  (      30 calls)

     Called by *egterg:
     cdiaghg      :    295.84s CPU    195.06s WALL (     681 calls)
     cegterg:over :    303.76s CPU    161.60s WALL (     560 calls)
     cegterg:upda :    177.08s CPU     95.44s WALL (     560 calls)
     cegterg:last :    421.36s CPU    229.77s WALL (     272 calls)
     h_psi        :   1224.87s CPU    636.61s WALL (     689 calls)
     s_psi        :    314.18s CPU    170.16s WALL (     689 calls)
     g_psi        :      6.63s CPU      4.95s WALL (     560 calls)

     Called by h_psi:
     h_psi:calbec :    318.88s CPU    165.49s WALL (     689 calls)
     vloc_psi     :    593.82s CPU    309.89s WALL (     689 calls)
     add_vuspsi   :    305.18s CPU    149.47s WALL (     689 calls)

     General routines
     calbec       :    431.35s CPU    223.38s WALL (     809 calls)
     fft          :      2.23s CPU      1.25s WALL (     206 calls)
     ffts         :      2.96s CPU      2.34s WALL (      31 calls)
     fftw         :    505.35s CPU    265.55s WALL (  403588 calls)
     interpolate  :      0.48s CPU      0.33s WALL (      16 calls)

     Parallel routines

     PAW routines
     PAW_pot      :      9.63s CPU      4.66s WALL (      16 calls)
     PAW_symme    :      0.04s CPU      0.02s WALL (      31 calls)

     PWSCF        :  54m45.70s CPU  30m17.55s WALL


   This run was terminated on:   0:54: 5  23Jun2025            

=------------------------------------------------------------------------------=
   JOB DONE.
=------------------------------------------------------------------------------=
